6
MD Step 0
C  -0.33763715 -0.58748864 0.00000000
H  0.19552659 -1.51519357 0.00000000
H  -1.40763715 -0.58748864 0.00000000
C  0.33763715 0.58748865 0.00000000
H  -0.19552659 1.51519357 0.00000000
H  1.40763715 0.58748865 0.00000000
6
MD Step 1
C  -0.33800589 -0.58783587 -0.00039381
H  0.19788849 -1.51298789 0.00234853
H  -1.40542200 -0.58520964 0.00234799
C  0.33721674 0.58704628 -0.00039528
H  -0.19318568 1.51769270 0.00235342
H  1.41012278 0.58991370 0.00235287
6
MD Step 2
C  -0.33831696 -0.58808499 -0.00078614
H  0.20026477 -1.51109967 0.00468820
H  -1.40353573 -0.58308844 0.00468721
C  0.33675032 0.58651359 -0.00078904
H  -0.19086985 1.52045055 0.00469786
H  1.41280893 0.59246237 0.00469665
6
MD Step 3
C  -0.33856851 -0.58823680 -0.00117857
H  0.20266366 -1.50952965 0.00702840
H  -1.40201307 -0.58112249 0.00702730
C  0.33624136 0.58589302 -0.00118280
H  -0.18856228 1.52344647 0.00704234
H  1.41564202 0.59513425 0.00704012
6
MD Step 4
C  -0.33875790 -0.58829172 -0.00157120
H  0.20508114 -1.50828045 0.00936952
H  -1.40088848 -0.57931728 0.00936909
C  0.33569513 0.58518946 -0.00157649
H  -0.18625300 1.52664533 0.00938666
H  1.41855648 0.59791897 0.00938267
6
MD Step 5
C  -0.33888213 -0.58825001 -0.00196287
H  0.20750253 -1.50735501 0.01170450
H  -1.40019341 -0.57768482 0.01170613
C  0.33511833 0.58440998 -0.00196878
H  -0.18393779 1.52999994 0.01172301
H  1.42147814 0.60079780 0.01171599
6
MD Step 6
C  -0.33893628 -0.58811020 -0.00234961
H  0.20989337 -1.50676609 0.01400955
H  -1.39996455 -0.57625285 0.01401531
C  0.33452059 0.58356521 -0.00235550
H  -0.18162801 1.53344275 0.01402665
H  1.42431666 0.60373446 0.01401471
6
MD Step 7
C  -0.33892194 -0.58787732 -0.00273290
H  0.21224879 -1.50648734 0.01629321
H  -1.40019364 -0.57501571 0.01630595
C  0.33390602 0.58266101 -0.00273788
H  -0.17930195 1.53693625 0.01630507
H  1.42701665 0.60672446 0.01628575
6
MD Step 8
C  -0.33883674 -0.58755235 -0.00310918
H  0.21453169 -1.50651618 0.01853419
H  -1.40088979 -0.57399647 0.01855758
C  0.33328363 0.58170879 -0.00311216
H  -0.17696756 1.54041174 0.01853587
H  1.42949665 0.60973297 0.01850605
6
MD Step 9
C  -0.33868675 -0.58714457 -0.00348228
H  0.21674685 -1.50680063 0.02075507
H  -1.40200569 -0.57317325 0.02079340
C  0.33265486 0.58071297 -0.00348191
H  -0.17458932 1.54384424 0.02074044
H  1.43172436 0.61276875 0.02069650
6
MD Step 10
C  -0.33847452 -0.58665950 -0.00385143
H  0.21887055 -1.50731139 0.02295123
H  -1.40350989 -0.57255018 0.02300944
C  0.33202546 0.57968285 -0.00384615
H  -0.17215961 1.54718234 0.02291304
H  1.43364611 0.61581311 0.02285088
6
MD Step 11
C  -0.33820282 -0.58610266 -0.00421516
H  0.22087399 -1.50801974 0.02511387
H  -1.40536491 -0.57213446 0.02519737
C  0.33140161 0.57862861 -0.00420324
H  -0.16967627 1.55037208 0.02504377
H  1.43521067 0.61884310 0.02495889
6
MD Step 12
C  -0.33787051 -0.58547535 -0.00456711
H  0.22269925 -1.50892304 0.02720527
H  -1.40755316 -0.57196095 0.02732003
C  0.33079398 0.57756531 -0.00454673
H  -0.16716749 1.55333335 0.02709404
H  1.43634546 0.62180694 0.02698142
6
MD Step 13
C  -0.33748686 -0.58478901 -0.00491056
H  0.22434607 -1.50995928 0.02924522
H  -1.40999149 -0.57200582 0.02939708
C  0.33020321 0.57649828 -0.00487980
H  -0.16460615 1.55604713 0.02908267
H  1.43704381 0.62471058 0.02893735
6
MD Step 14
C  -0.33705408 -0.58404769 -0.00524099
H  0.22576866 -1.51111193 0.03120703
H  -1.41263735 -0.57229035 0.03140196
C  0.32963728 0.57544046 -0.00519794
H  -0.16201365 1.55845233 0.03098240
H  1.43726120 0.62751394 0.03079918
6
MD Step 15
C  -0.33658069 -0.58326151 -0.00555962
H  0.22695692 -1.51232992 0.03309848
H  -1.41540936 -0.57280014 0.03334194
C  0.32909794 0.57439873 -0.00550240
H  -0.15937951 1.56052729 0.03280046
H  1.43699663 0.63021190 0.03257441
6
MD Step 16
C  -0.33607441 -0.58243953 -0.00586648
H  0.22789534 -1.51357028 0.03492015
H  -1.41823118 -0.57352674 0.03521691
C  0.32858770 0.57338078 -0.00579326
H  -0.15670310 1.56224857 0.03453706
H  1.43625089 0.63279274 0.03426367
6
MD Step 17
C  -0.33554326 -0.58159092 -0.00616163
H  0.22857090 -1.51479141 0.03667291
H  -1.42102586 -0.57446023 0.03702679
C  0.32810850 0.57239382 -0.00607071
H  -0.15398627 1.56359884 0.03619291
H  1.43503402 0.63524568 0.03586825
6
MD Step 18
C  -0.33498600 -0.58071534 -0.00643554
H  0.22891700 -1.51601021 0.03830131
H  -1.42377406 -0.57564548 0.03871621
C  0.32767129 0.57145390 -0.00632572
H  -0.15128956 1.56451082 0.03771315
H  1.43330889 0.63750456 0.03733289
6
MD Step 19
C  -0.33441483 -0.57982582 -0.00669237
H  0.22895010 -1.51716623 0.03983043
H  -1.42637846 -0.57704617 0.04030850
C  0.32727293 0.57056299 -0.00656254
H  -0.14859653 1.56500406 0.03912290
H  1.43112798 0.63958452 0.03868405
6
MD Step 20
C  -0.33383652 -0.57892977 -0.00693080
H  0.22865780 -1.51823437 0.04125335
H  -1.42877769 -0.57865671 0.04179554
C  0.32691512 0.56972774 -0.00678022
H  -0.14592532 1.56507294 0.04041585
H  1.42852081 0.64146979 0.03991625
6
MD Step 21
C  -0.33325679 -0.57803342 -0.00714871
H  0.22802612 -1.51919839 0.04255826
H  -1.43092066 -0.58047537 0.04316447
C  0.32659985 0.56895483 -0.00697707
H  -0.14330170 1.56471367 0.04158111
H  1.42552057 0.64314080 0.04101931
6
MD Step 22
C  -0.33268736 -0.57714899 -0.00735046
H  0.22708232 -1.52000853 0.04377151
H  -1.43272469 -0.58246181 0.04443932
C  0.32632218 0.56824386 -0.00715761
H  -0.14071642 1.56396704 0.04264560
H  1.42220647 0.64461710 0.04202219
6
MD Step 23
C  -0.33213202 -0.57628062 -0.00753275
H  0.22581229 -1.52066467 0.04487438
H  -1.43415963 -0.58461968 0.04560043
C  0.32608426 0.56760109 -0.00731910
H  -0.13820737 1.56283542 0.04359198
H  1.41862005 0.64587442 0.04290830
6
MD Step 24
C  -0.33159493 -0.57543275 -0.00769314
H  0.22421055 -1.52116650 0.04585339
H  -1.43519834 -0.58694684 0.04663338
C  0.32588688 0.56703112 -0.00745969
H  -0.13580962 1.56133261 0.04440824
H  1.41481465 0.64689483 0.04366651
6
MD Step 25
C  -0.33108533 -0.57461495 -0.00783512
H  0.22230916 -1.52148477 0.04672938
H  -1.43578820 -0.58940677 0.04755677
C  0.32572465 0.56653200 -0.00758307
H  -0.13352645 1.55951245 0.04511637
H  1.41088343 0.64769576 0.04432100
6
MD Step 26
C  -0.33060342 -0.57382755 -0.00795339
H  0.22009296 -1.52164606 0.04747233
H  -1.43593647 -0.59201300 0.04834048
C  0.32560035 0.56610940 -0.00768480
H  -0.13141322 1.55738366 0.04568833
H  1.40687343 0.64824512 0.04484399
6
MD Step 27
C  -0.33015713 -0.57307872 -0.00805150
H  0.21760060 -1.52163166 0.04810308
H  -1.43560920 -0.59472851 0.04900331
C  0.32550789 0.56575976 -0.00776859
H  -0.12947655 1.55501050 0.04614637
H  1.40288560 0.64856261 0.04525989
6
MD Step 28
C  -0.32974782 -0.57236995 -0.00812686
H  0.21483874 -1.52146313 0.04860720
H  -1.43481725 -0.59755121 0.04953037
C  0.32544689 0.56548461 -0.00783252
H  -0.12775900 1.55242635 0.04647796
H  1.39898748 0.64863383 0.04555692
6
MD Step 29
C  -0.32937581 -0.57170169 -0.00817660
H  0.21181524 -1.52116877 0.04896848
H  -1.43358285 -0.60048078 0.04990540
C  0.32541712 0.56528508 -0.00787440
H  -0.12630548 1.54966638 0.04666894
H  1.39524503 0.64844370 0.04572131
6
MD Step 30
C  -0.32904570 -0.57107872 -0.00820309
H  0.20857069 -1.52075149 0.04920104
H  -1.43190755 -0.60348706 0.05014133
C  0.32541320 0.56515659 -0.00789687
H  -0.12513111 1.54679850 0.04673503
H  1.39175288 0.64800831 0.04577024
6
MD Step 31
C  -0.32876571 -0.57050957 -0.00821351
H  0.20517483 -1.52019194 0.04934583
H  -1.42977568 -0.60651359 0.05027673
C  0.32542536 0.56508959 -0.00790674
H  -0.12422400 1.54391883 0.04671842
H  1.38862863 0.64737136 0.04574848
6
MD Step 32
C  -0.32853134 -0.56998996 -0.00820239
H  0.20162782 -1.51954669 0.04937176
H  -1.42725304 -0.60957585 0.05028183
C  0.32545613 0.56508609 -0.00789941
H  -0.12364236 1.54105184 0.04659002
H  1.38591181 0.64650538 0.04562597
6
MD Step 33
C  -0.32834463 -0.56952239 -0.00817211
H  0.19797595 -1.51883154 0.04929231
H  -1.42437015 -0.61264567 0.05016962
C  0.32550094 0.56514039 -0.00787726
H  -0.12339854 1.53826532 0.04636467
H  1.38367822 0.64542797 0.04541824
6
MD Step 34
C  -0.32820619 -0.56910806 -0.00812440
H  0.19426288 -1.51806930 0.04911700
H  -1.42117013 -0.61569947 0.04994954
C  0.32555631 0.56524728 -0.00784199
H  -0.12350634 1.53562067 0.04605310
H  1.38198960 0.64415327 0.04513627
6
MD Step 35
C  -0.32811080 -0.56874249 -0.00805560
H  0.19050298 -1.51731538 0.04882503
H  -1.41773441 -0.61874460 0.04960247
C  0.32562444 0.56540657 -0.00779046
H  -0.12400650 1.53314527 0.04563569
H  1.38086549 0.64266562 0.04475891
6
MD Step 36
C  -0.32805981 -0.56842805 -0.00796988
H  0.18675474 -1.51658299 0.04843944
H  -1.41410758 -0.62174556 0.04915139
C  0.32570073 0.56561081 -0.00772637
H  -0.12489243 1.53090529 0.04513614
H  1.38035616 0.64099357 0.04430994
6
MD Step 37
C  -0.32804977 -0.56816252 -0.00786700
H  0.18305179 -1.51591084 0.04795846
H  -1.41036511 -0.62469241 0.04859585
C  0.32578545 0.56585689 -0.00764943
H  -0.12617777 1.52893590 0.04455316
H  1.38047278 0.63914131 0.04378675
6
MD Step 38
C  -0.32807758 -0.56794434 -0.00774781
H  0.17943300 -1.51533162 0.04738615
H  -1.40658138 -0.62757028 0.04794123
C  0.32587854 0.56614104 -0.00756020
H  -0.12786538 1.52727076 0.04389098
H  1.38121752 0.63711928 0.04319226
6
MD Step 39
C  -0.32813747 -0.56776952 -0.00761086
H  0.17592327 -1.51488969 0.04671381
H  -1.40284687 -0.63037799 0.04718091
C  0.32598274 0.56646199 -0.00745716
H  -0.12996543 1.52592259 0.04314073
H  1.38256489 0.63492566 0.04251556
6
MD Step 40
C  -0.32822626 -0.56763697 -0.00745791
H  0.17256351 -1.51460952 0.04595047
H  -1.39923565 -0.63309740 0.04632540
C  0.32609835 0.56681596 -0.00734154
H  -0.13246470 1.52491313 0.04231103
H  1.38449300 0.63257695 0.04176381
6
MD Step 41
C  -0.32833663 -0.56754170 -0.00728665
H  0.16936961 -1.51453522 0.04508250
H  -1.39584414 -0.63573400 0.04536356
C  0.32623001 0.56720344 -0.00721094
H  -0.13536676 1.52423228 0.04138742
H  1.38694393 0.63006764 0.04092022
6
MD Step 42
C  -0.32846678 -0.56748438 -0.00710073
H  0.16638792 -1.51467353 0.04412949
H  -1.39273267 -0.63826051 0.04431635
C  0.32637708 0.56761978 -0.00706817
H  -0.13863598 1.52389428 0.04038873
H  1.38988158 0.62742632 0.04000244
6
MD Step 43
C  -0.32861175 -0.56746277 -0.00690052
H  0.16364313 -1.51504479 0.04309269
H  -1.38997547 -0.64066881 0.04318697
C  0.32654231 0.56806394 -0.00691312
H  -0.14224933 1.52388601 0.03931516
H  1.39324115 0.62466406 0.03900899
6
MD Step 44
C  -0.32876673 -0.56747479 -0.00668637
H  0.16115614 -1.51566408 0.04197327
H  -1.38764030 -0.64295143 0.04197847
C  0.32672856 0.56853530 -0.00674569
H  -0.14617842 1.52418576 0.03816673
H  1.39694948 0.62179269 0.03793836
6
MD Step 45
C  -0.32892608 -0.56751757 -0.00645747
H  0.15893731 -1.51654696 0.04076598
H  -1.38579277 -0.64510791 0.04068741
C  0.32693978 0.56903474 -0.00656473
H  -0.15039636 1.52475770 0.03693688
H  1.40092069 0.61881851 0.03678259
6
MD Step 46
C  -0.32908317 -0.56758718 -0.00621146
H  0.15698436 -1.51771102 0.03945731
H  -1.38449620 -0.64714656 0.03930204
C  0.32718115 0.56956486 -0.00636784
H  -0.15488028 1.52555095 0.03561057
H  1.40505667 0.61574045 0.03552530
6
MD Step 47
C  -0.32923988 -0.56768786 -0.00595435
H  0.15533706 -1.51912037 0.03808006
H  -1.38375463 -0.64902894 0.03785572
C  0.32744981 0.57012056 -0.00615999
H  -0.15955661 1.52655615 0.03422025
H  1.40930472 0.61260500 0.03419877
6
MD Step 48
C  -0.32938916 -0.56781483 -0.00568207
H  0.15397462 -1.52078908 0.03661137
H  -1.38361528 -0.65077341 0.03632679
C  0.32775191 0.57070640 -0.00593735
H  -0.16440540 1.52770316 0.03274150
H  1.41355551 0.60940332 0.03277771
6
MD Step 49
C  -0.32953165 -0.56797049 -0.00539781
H  0.15291238 -1.52268404 0.03506878
H  -1.38407022 -0.65235748 0.03473304
C  0.32808642 0.57132006 -0.00570258
H  -0.16936350 1.52895987 0.03119149
H  1.41774284 0.60616807 0.03127925
6
MD Step 50
C  -0.32966687 -0.56815567 -0.00510277
H  0.15215034 -1.52477743 0.03345892
H  -1.38510830 -0.65376994 0.03308121
C  0.32845361 0.57196102 -0.00545664
H  -0.17437758 1.53028134 0.02957643
H  1.42179283 0.60292139 0.02970966
6
MD Step 51
C  -0.32979306 -0.56836956 -0.00479603
H  0.15167266 -1.52704808 0.03177691
H  -1.38671625 -0.65501173 0.03136626
C  0.32885522 0.57263065 -0.00519870
H  -0.17940569 1.53161033 0.02789078
H  1.42562454 0.59967414 0.02806352
6
MD Step 52
C  -0.32991191 -0.56861416 -0.00447950
H  0.15147560 -1.52945440 0.03003359
H  -1.38885151 -0.65606805 0.02959853
C  0.32928980 0.57332738 -0.00493049
H  -0.18439017 1.53290630 0.02614549
H  1.42917908 0.59645327 0.02635219
6
MD Step 53
C  -0.33002117 -0.56888713 -0.00415032
H  0.15152527 -1.53197820 0.02821341
H  -1.39148644 -0.65695163 0.02776184
C  0.32975978 0.57405389 -0.00464954
H  -0.18930155 1.53410350 0.02432436
H  1.43237747 0.59325903 0.02455985
6
MD Step 54
C  -0.33012291 -0.56918982 -0.00380945
H  0.15180648 -1.53457671 0.02632237
H  -1.39456072 -0.65765383 0.02586131
C  0.33026339 0.57480884 -0.00435690
H  -0.19409028 1.53516087 0.02243352
H  1.43517053 0.59011327 0.02269325
6
MD Step 55
C  -0.33022534 -0.56952908 -0.00346381
H  0.15233475 -1.53717195 0.02439941
H  -1.39797170 -0.65813302 0.02393474
C  0.33079276 0.57558476 -0.00405891
H  -0.19867565 1.53607448 0.02051333
H  1.43755118 0.58707085 0.02079347
6
MD Step 56
C  -0.33032712 -0.56990198 -0.00311004
H  0.15306607 -1.53974335 0.02242655
H  -1.40166836 -0.65840689 0.02196319
C  0.33134911 0.57638361 -0.00375280
H  -0.20303829 1.53678652 0.01854538
H  1.43946248 0.58412844 0.01884268
6
MD Step 57
C  -0.33043233 -0.57031046 -0.00275027
H  0.15398552 -1.54223986 0.02041615
H  -1.40556437 -0.65846324 0.01995796
C  0.33192803 0.57720165 -0.00344065
H  -0.20713138 1.53727484 0.01654262
H  1.44088738 0.58131264 0.01685451
6
MD Step 58
C  -0.33054158 -0.57075265 -0.00238292
H  0.15505644 -1.54463252 0.01836005
H  -1.40959183 -0.65831212 0.01790997
C  0.33252811 0.57803818 -0.00312128
H  -0.21093315 1.53750166 0.01449684
H  1.44179690 0.57862846 0.01482132
6
MD Step 59
C  -0.33065815 -0.57122901 -0.00200927
H  0.15625760 -1.54687829 0.01626598
H  -1.41366608 -0.65794878 0.01582603
C  0.33314480 0.57888928 -0.00279603
H  -0.21441000 1.53745107 0.01241620
H  1.44218758 0.57609595 0.01275185
6
MD Step 60
C  -0.33078047 -0.57173489 -0.00162566
H  0.15754000 -1.54896470 0.01411427
H  -1.41773144 -0.65739791 0.01368576
C  0.33377770 0.57975526 -0.00246184
H  -0.21756103 1.53708526 0.01028045
H  1.44203733 0.57370638 0.01062631
6
MD Step 61
C  -0.33092178 -0.57227996 -0.00124411
H  0.15894298 -1.55079401 0.01197239
H  -1.42164622 -0.65659660 0.01155593
C  0.33441136 0.58062092 -0.00212970
H  -0.22030118 1.53646143 0.00815927
H  1.44142250 0.57153797 0.00851484
6
MD Step 62
C  -0.33107140 -0.57285020 -0.00085218
H  0.16036878 -1.55241134 0.00977130
H  -1.42541216 -0.65562301 0.00936712
C  0.33505296 0.58149408 -0.00178849
H  -0.22268984 1.53550407 0.00598146
H  1.44028889 0.56952959 0.00634650
6
MD Step 63
C  -0.33123755 -0.57345001 -0.00045739
H  0.16183339 -1.55375270 0.00755359
H  -1.42892272 -0.65444285 0.00716157
C  0.33569052 0.58236290 -0.00144517
H  -0.22467768 1.53425764 0.00379065
H  1.43870528 0.56773161 0.00416514
6
MD Step 64
C  -0.33142368 -0.57407893 -0.00006275
H  0.16332869 -1.55478456 0.00533651
H  -1.43210356 -0.65304909 0.00495636
C  0.33631608 0.58321947 -0.00110253
H  -0.22624635 1.53274731 0.00160434
H  1.43672320 0.56616742 0.00198837
6
MD Step 65
C  -0.33162178 -0.57472521 0.00034000
H  0.16478406 -1.55554303 0.00307369
H  -1.43495234 -0.65150104 0.00270516
C  0.33693215 0.58406637 -0.00075302
H  -0.22744754 1.53093981 -0.00062548
H  1.43433726 0.56479469 -0.00023190
6
MD Step 66
C  -0.33183723 -0.57539020 0.00074491
H  0.16621181 -1.55598781 0.00079909
H  -1.43739280 -0.64977744 0.00044200
C  0.33752752 0.58489209 -0.00040210
H  -0.22825629 1.52888969 -0.00286456
H  1.43163166 0.56365074 -0.00246156
6
MD Step 67
C  -0.33206946 -0.57606937 0.00115164
H  0.16759425 -1.55611611 -0.00148524
H  -1.43938923 -0.64789065 -0.00183080
C  0.33809622 0.58569022 -0.00005001
H  -0.22868511 1.52662512 -0.00511150
H  1.42866505 0.56273929 -0.00469949
6
MD Step 68
C  -0.33231890 -0.57675921 0.00155833
H  0.16892474 -1.55592162 -0.00376854
H  -1.44090580 -0.64584531 -0.00410214
C  0.33863081 0.58645262 0.00030159
H  -0.22874250 1.52418863 -0.00735617
H  1.42551068 0.56207135 -0.00693597
6
MD Step 69
C  -0.33258861 -0.57745889 0.00195991
H  0.17021738 -1.55538489 -0.00602192
H  -1.44189732 -0.64362860 -0.00634270
C  0.33912084 0.58716786 0.00064815
H  -0.22842305 1.52164626 -0.00957006
H  1.42226478 0.56167479 -0.00914301
6
MD Step 70
C  -0.33286966 -0.57815582 0.00236309
H  0.17142115 -1.55455967 -0.00828370
H  -1.44239598 -0.64129678 -0.00859037
C  0.33956738 0.58783587 0.00099615
H  -0.22779373 1.51900045 -0.01179341
H  1.41895825 0.56150830 -0.01136141
6
MD Step 71
C  -0.33316273 -0.57884709 0.00276429
H  0.17254684 -1.55344500 -0.01053336
H  -1.44238339 -0.63884705 -0.01082406
C  0.33996185 0.58844644 0.00134246
H  -0.22686558 1.51631720 -0.01400657
H  1.41568363 0.56158861 -0.01357220
6
MD Step 72
C  -0.33346432 -0.57952579 0.00316378
H  0.17358550 -1.55206687 -0.01277256
H  -1.44187254 -0.63629957 -0.01304494
C  0.34029976 0.58899323 0.00168761
H  -0.22567533 1.51364319 -0.01621262
H  1.41251103 0.56190888 -0.01577912
6
MD Step 73
C  -0.33377237 -0.58018671 0.00355994
H  0.17454169 -1.55044442 -0.01499199
H  -1.44087416 -0.63366380 -0.01524319
C  0.34057529 0.58946814 0.00203033
H  -0.22425127 1.51103839 -0.01840368
H  1.40951998 0.56247213 -0.01797495
6
MD Step 74
C  -0.33409117 -0.58083120 0.00394440
H  0.17546203 -1.54856092 -0.01714298
H  -1.43936800 -0.63090957 -0.01736938
C  0.34077660 0.58985660 0.00236282
H  -0.22258378 1.50860360 -0.02053188
H  1.40682605 0.56331998 -0.02011276
6
MD Step 75
C  -0.33440682 -0.58144292 0.00432669
H  0.17629054 -1.54650854 -0.01928132
H  -1.43744807 -0.62811247 -0.01947933
C  0.34091021 0.59016218 0.00269469
H  -0.22076981 1.50633399 -0.02265544
H  1.40443280 0.56438800 -0.02225083
6
MD Step 76
C  -0.33472291 -0.58202325 0.00469848
H  0.17707847 -1.54427674 -0.02135812
H  -1.43511069 -0.62524228 -0.02152346
C  0.34096585 0.59037116 0.00301801
H  -0.21880088 1.50432897 -0.02472641
H  1.40244212 0.56571617 -0.02434197
6
MD Step 77
C  -0.33503385 -0.58256490 0.00506036
H  0.17782649 -1.54191004 -0.02337679
H  -1.43241271 -0.62232143 -0.02350510
C  0.34094300 0.59047928 0.00333362
H  -0.21672064 1.50263237 -0.02674980
H  1.40089328 0.56729108 -0.02639127
6
MD Step 78
C  -0.33534046 -0.58306740 0.00540629
H  0.17857642 -1.53941507 -0.02530139
H  -1.42937852 -0.61933240 -0.02538778
C  0.34083555 0.59047640 0.00363563
H  -0.21453143 1.50132347 -0.02869057
H  1.39985391 0.56913817 -0.02836413
6
MD Step 79
C  -0.33563134 -0.58351871 0.00574209
H  0.17930078 -1.53687055 -0.02716636
H  -1.42611015 -0.61632835 -0.02720674
C  0.34065028 0.59036516 0.00393004
H  -0.21230397 1.50040487 -0.03058472
H  1.39930759 0.57121144 -0.03029554
6
MD Step 80
C  -0.33590082 -0.58391296 0.00606777
H  0.18000752 -1.53432082 -0.02897176
H  -1.42268027 -0.61332726 -0.02896253
C  0.34038926 0.59014342 0.00421695
H  -0.21007104 1.49990695 -0.03243313
H  1.39925951 0.57349872 -0.03218564
6
MD Step 81
C  -0.33614230 -0.58424393 0.00638422
H  0.18070000 -1.53181476 -0.03072273
H  -1.41917051 -0.61035161 -0.03066117
C  0.34005639 0.58981099 0.00449728
H  -0.20786648 1.49984698 -0.03424150
H  1.39969652 0.57598212 -0.03403892
6
MD Step 82
C  -0.33635036 -0.58450711 0.00669121
H  0.18138839 -1.52939300 -0.03241761
H  -1.41565799 -0.60741632 -0.03230198
C  0.33965539 0.58936774 0.00477069
H  -0.20571271 1.50024009 -0.03600830
H  1.40059944 0.57864980 -0.03585254
6
MD Step 83
C  -0.33652113 -0.58470004 0.00698719
H  0.18209063 -1.52708574 -0.03404659
H  -1.41221231 -0.60452733 -0.03387609
C  0.33918943 0.58881347 0.00503535
H  -0.20361892 1.50110000 -0.03772331
H  1.40194512 0.58149738 -0.03761499
6
MD Step 84
C  -0.33665036 -0.58482033 0.00727124
H  0.18281997 -1.52492411 -0.03560364
H  -1.40890599 -0.60169361 -0.03537875
C  0.33866307 0.58814993 0.00528999
H  -0.20159284 1.50242637 -0.03937970
H  1.40369527 0.58451581 -0.03931788
6
MD Step 85
C  -0.33673536 -0.58486763 0.00754129
H  0.18359571 -1.52292836 -0.03707540
H  -1.40580152 -0.59891599 -0.03679774
C  0.33808032 0.58737903 0.00553195
H  -0.19962959 1.50421592 -0.04096276
H  1.40580890 0.58770245 -0.04094519
6
MD Step 86
C  -0.33677393 -0.58484235 0.00779534
H  0.18443525 -1.52111484 -0.03844872
H  -1.40295734 -0.59619477 -0.03812108
C  0.33744574 0.58650409 0.00575851
H  -0.19771937 1.50645486 -0.04245752
H  1.40823619 0.59105344 -0.04248069
6
MD Step 87
C  -0.33676097 -0.58474239 0.00803460
H  0.18533367 -1.51951586 -0.03973071
H  -1.40044634 -0.59354998 -0.03935807
C  0.33676775 0.58553318 0.00597049
H  -0.19586804 1.50909924 -0.04386900
H  1.41089993 0.59454347 -0.04392730
6
MD Step 88
C  -0.33670115 -0.58457552 0.00825186
H  0.18633737 -1.51810491 -0.04087486
H  -1.39827977 -0.59094711 -0.04046187
C  0.33604607 0.58446661 0.00615905
H  -0.19402353 1.51214995 -0.04514788
H  1.41377181 0.59819986 -0.04523624
6
MD Step 89
C  -0.33658576 -0.58433630 0.00845311
H  0.18740641 -1.51693476 -0.04191854
H  -1.39654442 -0.58843532 -0.04147325
C  0.33529478 0.58332001 0.00633032
H  -0.19221428 1.51551557 -0.04632882
H  1.41673566 0.60196467 -0.04643912
6
MD Step 90
C  -0.33641303 -0.58402619 0.00863867
H  0.18853399 -1.51601689 -0.04286335
H  -1.39528036 -0.58602726 -0.04239540
C  0.33452200 0.58210403 0.00648400
H  -0.19043020 1.51913396 -0.04741024
H  1.41971017 0.60581476 -0.04753319
6
MD Step 91
C  -0.33617751 -0.58364283 0.00881316
H  0.18968256 -1.51538537 -0.04373894
H  -1.39454361 -0.58376310 -0.04326085
C  0.33374058 0.58083491 0.00662493
H  -0.18868739 1.52290982 -0.04841853
H  1.42258695 0.60969794 -0.04854244
6
MD Step 92
C  -0.33588202 -0.58319191 0.00897456
H  0.19085452 -1.51502591 -0.04453225
H  -1.39433382 -0.58163962 -0.04405705
C  0.33295605 0.57952243 0.00675024
H  -0.18695831 1.52678717 -0.04933733
H  1.42530350 0.61360403 -0.04945050
6
MD Step 93
C  -0.33553097 -0.58268044 0.00912041
H  0.19205249 -1.51491606 -0.04522738
H  -1.39463418 -0.57965026 -0.04476806
C  0.33217328 0.57817645 0.00685654
H  -0.18521249 1.53071099 -0.05014761
H  1.42780455 0.61752504 -0.05023883
6
MD Step 94
C  -0.33512600 -0.58211228 0.00925177
H  0.19325380 -1.51505156 -0.04583153
H  -1.39543768 -0.57781091 -0.04540179
C  0.33140073 0.57681104 0.00694474
H  -0.18344303 1.53460278 -0.05085350
H  1.43001735 0.62142946 -0.05091121
6
MD Step 95
C  -0.33466944 -0.58149165 0.00936995
H  0.19443163 -1.51542582 -0.04635407
H  -1.39672667 -0.57613907 -0.04596804
C  0.33064693 0.57544085 0.00701619
H  -0.18164638 1.53838299 -0.05146154
H  1.43187370 0.62528340 -0.05147397
6
MD Step 96
C  -0.33416400 -0.58082272 0.00947678
H  0.19555377 -1.51603194 -0.04680818
H  -1.39847519 -0.57465525 -0.04648023
C  0.32992067 0.57408113 0.00707304
H  -0.17982452 1.54197092 -0.05198227
H  1.43330956 0.62904930 -0.05193745
6
MD Step 97
C  -0.33361665 -0.58011360 0.00957101
H  0.19660692 -1.51683932 -0.04718680
H  -1.40062617 -0.57335917 -0.04693021
C  0.32922687 0.57274358 0.00711385
H  -0.17796171 1.54530984 -0.05240663
H  1.43428974 0.63271004 -0.05229364
6
MD Step 98
C  -0.33303828 -0.57937601 0.00964859
H  0.19759594 -1.51779561 -0.04746379
H  -1.40309445 -0.57223088 -0.04728932
C  0.32856677 0.57143641 0.00713368
H  -0.17602602 1.54836694 -0.05270731
H  1.43480715 0.63626808 -0.05251753
6
MD Step 99
C  -0.33243218 -0.57861371 0.00971276
H  0.19847636 -1.51889559 -0.04766251
H  -1.40583725 -0.57129854 -0.04758063
C  0.32794940 0.57017555 0.00713681
H  -0.17403728 1.55106608 -0.05290603
H  1.43481506 0.63967735 -0.05263080
6
MD Step 100
C  -0.33180723 -0.57783587 0.00976211
H  0.19923486 -1.52010169 -0.04777521
H  -1.40877560 -0.57055858 -0.04779442
C  0.32737797 0.56897114 0.00712192
H  -0.17198764 1.55336876 -0.05299440
H  1.43430754 0.64292381 -0.05262660
6
MD Step 101
C  -0.33117778 -0.57705703 0.00979068
H  0.19989019 -1.52134440 -0.04776241
H  -1.41179613 -0.56997532 -0.04788757
C  0.32684980 0.56782733 0.00708183
H  -0.16984150 1.55527505 -0.05293381
H  1.43331985 0.64602603 -0.05246951
6
MD Step 102
C  -0.33054549 -0.57627871 0.00980388
H  0.20038515 -1.52263146 -0.04766266
H  -1.41486206 -0.56958868 -0.04789840
C  0.32637461 0.56676025 0.00702386
H  -0.16764288 1.55671583 -0.05276191
H  1.43182017 0.64892662 -0.05219694
6
MD Step 103
C  -0.32991915 -0.57550960 0.00980075
H  0.20070751 -1.52392797 -0.04747071
H  -1.41789391 -0.56939445 -0.04781945
C  0.32595411 0.56577781 0.00694732
H  -0.16539611 1.55767353 -0.05247424
H  1.42983002 0.65161323 -0.05180617
6
MD Step 104
C  -0.32930494 -0.57475564 0.00978251
H  0.20083211 -1.52521507 -0.04719646
H  -1.42082928 -0.56940193 -0.04765911
C  0.32559182 0.56488928 0.00685439
H  -0.16312341 1.55812449 -0.05208131
H  1.42736629 0.65406040 -0.05130885
6
MD Step 105
C  -0.32871546 -0.57402933 0.00974440
H  0.20077680 -1.52643508 -0.04680860
H  -1.42356879 -0.56957902 -0.04738310
C  0.32528359 0.56409601 0.00673970
H  -0.16080997 1.55809440 -0.05155438
H  1.42449632 0.65628542 -0.05067892
6
MD Step 106
C  -0.32815815 -0.57333790 0.00968595
H  0.20053346 -1.52756116 -0.04630479
H  -1.42604693 -0.56992072 -0.04698731
C  0.32502936 0.56340283 0.00660326
H  -0.15847213 1.55758945 -0.05089304
H  1.42126844 0.65827895 -0.04991753
6
MD Step 107
C  -0.32763784 -0.57268590 0.00960860
H  0.20008410 -1.52858203 -0.04569570
H  -1.42821740 -0.57043351 -0.04648116
C  0.32483051 0.56281537 0.00644749
H  -0.15614163 1.55661205 -0.05010967
H  1.41772717 0.66002101 -0.04903823
6
MD Step 108
C  -0.32715878 -0.57207734 0.00951377
H  0.19941392 -1.52948933 -0.04499192
H  -1.43004087 -0.57112255 -0.04587418
C  0.32468765 0.56233788 0.00627483
H  -0.15385261 1.55517363 -0.04921678
H  1.41392561 0.66149399 -0.04805460
6
MD Step 109
C  -0.32672906 -0.57152020 0.00939888
H  0.19853872 -1.53025073 -0.04417623
H  -1.43145832 -0.57196478 -0.04514758
C  0.32459600 0.56196868 0.00608269
H  -0.15161456 1.55332163 -0.04820052
H  1.40995183 0.66271001 -0.04695448
6
MD Step 110
C  -0.32635586 -0.57102153 0.00926153
H  0.19747645 -1.53083873 -0.04323264
H  -1.43242039 -0.57293733 -0.04428403
C  0.32455031 0.56170494 0.00586869
H  -0.14944025 1.55111061 -0.04704849
H  1.40589918 0.66368229 -0.04572696
6
MD Step 111
C  -0.32604013 -0.57058207 0.00910430
H  0.19621514 -1.53126282 -0.04217895
H  -1.43291999 -0.57404905 -0.04330108
C  0.32455042 0.56154794 0.00563661
H  -0.14737683 1.54856991 -0.04578063
H  1.40183307 0.66439292 -0.04439250
6
MD Step 112
C  -0.32578845 -0.57020838 0.00892394
H  0.19478568 -1.53149716 -0.04099287
H  -1.43291984 -0.57526905 -0.04217559
C  0.32458893 0.56149116 0.00538295
H  -0.14543393 1.54577523 -0.04437878
H  1.39786165 0.66486564 -0.04293402
6
MD Step 113
C  -0.32560063 -0.56990011 0.00872263
H  0.19318576 -1.53155628 -0.03968925
H  -1.43242874 -0.57660151 -0.04092247
C  0.32466427 0.56153288 0.00511089
H  -0.14365791 1.54277237 -0.04286014
H  1.39405850 0.66508961 -0.04136887
6
MD Step 114
C  -0.32548085 -0.56966152 0.00849782
H  0.19144853 -1.53142667 -0.03825015
H  -1.43143299 -0.57801821 -0.03952359
C  0.32476915 0.56166493 0.00481768
H  -0.14206377 1.53964439 -0.04121070
H  1.39052886 0.66508808 -0.03968345
6
MD Step 115
C  -0.32542392 -0.56948726 0.00825480
H  0.18955783 -1.53115082 -0.03671088
H  -1.42998088 -0.57954181 -0.03801504
C  0.32490506 0.56188679 0.00451007
H  -0.14071763 1.53642649 -0.03946701
H  1.38732345 0.66483351 -0.03791364
6
MD Step 116
C  -0.32543584 -0.56938368 0.00798776
H  0.18757430 -1.53070141 -0.03503167
H  -1.42805639 -0.58112164 -0.03635706
C  0.32506091 0.56218491 0.00418131
H  -0.13961201 1.53322997 -0.03759390
H  1.38456177 0.66437378 -0.03602428
6
MD Step 117
C  -0.32550268 -0.56933675 0.00770865
H  0.18544451 -1.53017067 -0.03329115
H  -1.42576938 -0.58282158 -0.03462981
C  0.32524563 0.56256432 0.00384568
H  -0.13885243 1.53005147 -0.03566912
H  1.38224039 0.66364127 -0.03409156
6
MD Step 118
C  -0.32562741 -0.56934993 0.00741297
H  0.18322498 -1.52954653 -0.03145876
H  -1.42313053 -0.58459886 -0.03280333
C  0.32545009 0.56301173 0.00349799
H  -0.13843599 1.52699432 -0.03366554
H  1.38045439 0.66267724 -0.03208764
6
MD Step 119
C  -0.32581019 -0.56942403 0.00709811
H  0.18096193 -1.52883169 -0.02951641
H  -1.42017088 -0.58642250 -0.03086037
C  0.32566765 0.56351561 0.00313519
H  -0.13836851 1.52414749 -0.03156759
H  1.37927590 0.66151162 -0.02999593
6
MD Step 120
C  -0.32604338 -0.56955205 0.00676812
H  0.17866001 -1.52807405 -0.02748971
H  -1.41697235 -0.58830400 -0.02882788
C  0.32589950 0.56407147 0.00276189
H  -0.13869419 1.52155287 -0.02940139
H  1.37872110 0.66013183 -0.02784100
6
MD Step 121
C  -0.32632338 -0.56973131 0.00642267
H  0.17635360 -1.52729468 -0.02537537
H  -1.41359503 -0.59022658 -0.02670373
C  0.32614254 0.56467024 0.00237751
H  -0.13942406 1.51927479 -0.02716478
H  1.37882039 0.65855442 -0.02561933
6
MD Step 122
C  -0.32664086 -0.56995360 0.00606627
H  0.17404672 -1.52654653 -0.02320145
H  -1.41013567 -0.59220419 -0.02451737
C  0.32639958 0.56530828 0.00198689
H  -0.14059409 1.51733901 -0.02488564
H  1.37955816 0.65676541 -0.02335721
6
MD Step 123
C  -0.32698386 -0.57020818 0.00570554
H  0.17173048 -1.52589577 -0.02100924
H  -1.40670798 -0.59426383 -0.02231160
C  0.32667618 0.56598465 0.00159712
H  -0.14224687 1.51574909 -0.02260437
H  1.38089070 0.65473820 -0.02109349
6
MD Step 124
C  -0.32735120 -0.57049550 0.00533649
H  0.16946260 -1.52534093 -0.01877244
H  -1.40336040 -0.59636611 -0.02006101
C  0.32696707 0.56668784 0.00120347
H  -0.14435180 1.51456525 -0.02029531
H  1.38282686 0.65251389 -0.01880161
6
MD Step 125
C  -0.32773370 -0.57080799 0.00496262
H  0.16725288 -1.52492603 -0.01651220
H  -1.40018875 -0.59851844 -0.01778788
C  0.32727541 0.56741490 0.00080943
H  -0.14691767 1.51378954 -0.01797884
H  1.38531452 0.65008703 -0.01650093
6