6
MD Step 0
C  -0.33763715 -0.58748865 0.00000000
H  0.19552659 -1.51519357 0.00000000
H  -1.40763715 -0.58748865 0.00000000
C  0.33763715 0.58748864 0.00000000
H  -0.19552660 1.51519357 0.00000000
H  1.40763715 0.58748864 0.00000000
6
MD Step 1
C  -0.33608387 -0.58595550 0.00158320
H  0.20126628 -1.50999508 0.00546601
H  -1.40254310 -0.58192596 0.00547206
C  0.33925071 0.58912235 0.00158370
H  -0.19032837 1.52092833 0.00546434
H  1.41347697 0.59286664 0.00547039
6
MD Step 2
C  -0.33461945 -0.58457460 0.00315791
H  0.20663398 -1.50549649 0.01056930
H  -1.39815885 -0.57691654 0.01058158
C  0.34095013 0.59089991 0.00315894
H  -0.18548282 1.52656903 0.01056589
H  1.41913400 0.59803880 0.01057778
6
MD Step 3
C  -0.33323164 -0.58333544 0.00472887
H  0.21180454 -1.50151441 0.01549885
H  -1.39434146 -0.57228548 0.01551861
C  0.34274496 0.59282793 0.00473054
H  -0.18078652 1.53225064 0.01549309
H  1.42469915 0.60317903 0.01551069
6
MD Step 4
C  -0.33191308 -0.58223193 0.00629616
H  0.21677144 -1.49804947 0.02025564
H  -1.39112976 -0.56803782 0.02028525
C  0.34463909 0.59490748 0.00629870
H  -0.17623232 1.53792407 0.02024623
H  1.43009061 0.60826788 0.02026905
6
MD Step 5
C  -0.33065664 -0.58125772 0.00786007
H  0.22153301 -1.49509120 0.02484665
H  -1.38854429 -0.56417089 0.02488971
C  0.34663556 0.59713907 0.00786384
H  -0.17180770 1.54354946 0.02483146
H  1.43524348 0.61329300 0.02485853
6
MD Step 6
C  -0.32945571 -0.58040636 0.00942095
H  0.22608719 -1.49262287 0.02928002
H  -1.38659105 -0.56067950 0.02934140
C  0.34873638 0.59952235 0.00942647
H  -0.16749940 1.54909154 0.02925601
H  1.44010484 0.61824466 0.02928583
6
MD Step 7
C  -0.32830439 -0.57967136 0.01097908
H  0.23042729 -1.49062504 0.03356074
H  -1.38526412 -0.55755988 0.03364653
C  0.35094237 0.60205596 0.01098699
H  -0.16329785 1.55451509 0.03352394
H  1.44462914 0.62311121 0.03355449
6
MD Step 8
C  -0.32719741 -0.57904612 0.01253484
H  0.23454819 -1.48907250 0.03769635
H  -1.38454288 -0.55480497 0.03781370
C  0.35325336 0.60473772 0.01254590
H  -0.15919186 1.55979241 0.03764194
H  1.44878473 0.62788537 0.03767071
6
MD Step 9
C  -0.32613021 -0.57852397 0.01408860
H  0.23844244 -1.48793740 0.04169294
H  -1.38439493 -0.55240795 0.04184984
C  0.35566806 0.60756445 0.01410366
H  -0.15517272 1.56489866 0.04161532
H  1.45254918 0.63255979 0.04163941
6
MD Step 10
C  -0.32509884 -0.57809809 0.01564087
H  0.24210537 -1.48718810 0.04555990
H  -1.38477639 -0.55035905 0.04576491
C  0.35818434 0.61053226 0.01566081
H  -0.15122959 1.56981814 0.04545279
H  1.45591380 0.63713258 0.04546905
6
MD Step 11
C  -0.32410001 -0.57776162 0.01719216
H  0.24553035 -1.48679200 0.04930500
H  -1.38563473 -0.54864924 0.04956696
C  0.36079905 0.61363634 0.01721788
H  -0.14735443 1.57453803 0.04916161
H  1.45887787 0.64160157 0.04916674
6
MD Step 12
C  -0.32313097 -0.57750755 0.01874312
H  0.24871318 -1.48671517 0.05293865
H  -1.38691069 -0.54726794 0.05326637
C  0.36350833 0.61687124 0.01877545
H  -0.14353771 1.57905375 0.05275180
H  1.46145192 0.64596925 0.05274251
6
MD Step 13
C  -0.32218949 -0.57732885 0.02029436
H  0.25164734 -1.48692406 0.05646876
H  -1.38853964 -0.54620594 0.05687072
C  0.36630734 0.62023061 0.02033403
H  -0.13977364 1.58336218 0.05623104
H  1.46365241 0.65023660 0.05620421
6
MD Step 14
C  -0.32127365 -0.57721838 0.02184664
H  0.25432953 -1.48738551 0.05990673
H  -1.39045491 -0.54545292 0.06039084
C  0.36919078 0.62370769 0.02189425
H  -0.13605392 1.58746893 0.05961061
H  1.46550560 0.65441008 0.05956340
6
MD Step 15
C  -0.32038196 -0.57716896 0.02340061
H  0.25675266 -1.48806727 0.06325917
H  -1.39258638 -0.54500056 0.06383243
C  0.37215236 0.62729475 0.02345656
H  -0.13237642 1.59137774 0.06289721
H  1.46704105 0.65849159 0.06282726
6
MD Step 16
C  -0.31951304 -0.57717335 0.02495707
H  0.25891309 -1.48893873 0.06653645
H  -1.39486566 -0.54483999 0.06720489
C  0.37518547 0.63098385 0.02502153
H  -0.12873604 1.59510067 0.06610140
H  1.46829643 0.66248864 0.06600695
6
MD Step 17
C  -0.31866571 -0.57722431 0.02651678
H  0.26080596 -1.48997061 0.06974689
H  -1.39722441 -0.54496329 0.07051532
C  0.37828287 0.63476643 0.02658964
H  -0.12513083 1.59865063 0.06923182
H  1.46931338 0.66640716 0.06911192
6
MD Step 18
C  -0.31783883 -0.57731455 0.02808049
H  0.26242615 -1.49113510 0.07289764
H  -1.39959555 -0.54536309 0.07376953
C  0.38143682 0.63863344 0.02816130
H  -0.12156116 1.60204223 0.07229610
H  1.47013759 0.67025239 0.07215071
6
MD Step 19
C  -0.31703130 -0.57743683 0.02964884
H  0.26376818 -1.49240550 0.07599394
H  -1.40191352 -0.54603217 0.07697130
C  0.38463906 0.64257532 0.02973685
H  -0.11803033 1.60529074 0.07530014
H  1.47081820 0.67402793 0.07513034
6
MD Step 20
C  -0.31624188 -0.57758389 0.03122260
H  0.26482854 -1.49375770 0.07904307
H  -1.40411788 -0.54696370 0.08012645
C  0.38788128 0.64658247 0.03131665
H  -0.11454022 1.60841603 0.07825189
H  1.47140819 0.67774033 0.07806000
6
MD Step 21
C  -0.31546931 -0.57774854 0.03280229
H  0.26560240 -1.49516744 0.08204719
H  -1.40614865 -0.54814991 0.08323556
C  0.39115454 0.65064459 0.03290085
H  -0.11109918 1.61143469 0.08115450
H  1.47196192 0.68139039 0.08094421
6
MD Step 22
C  -0.31471208 -0.57792363 0.03438855
H  0.26608728 -1.49661331 0.08501075
H  -1.40795246 -0.54958329 0.08630158
C  0.39445006 0.65475153 0.03448967
H  -0.10771358 1.61436748 0.08401338
H  1.47253592 0.68498198 0.08378985
6
MD Step 23
C  -0.31396856 -0.57810208 0.03598184
H  0.26628140 -1.49807460 0.08793543
H  -1.40947951 -0.55125498 0.08932466
C  0.39775883 0.65889276 0.03608316
H  -0.10439335 1.61723377 0.08683135
H  1.47318684 0.68851587 0.08660131
6
MD Step 24
C  -0.31323685 -0.57827692 0.03758259
H  0.26618475 -1.49953228 0.09082218
H  -1.41068572 -0.55315511 0.09230434
C  0.40107194 0.66305776 0.03768135
H  -0.10114950 1.62005331 0.08961061
H  1.47397063 0.69199218 0.08938237
6
MD Step 25
C  -0.31251482 -0.57844126 0.03919111
H  0.26579940 -1.50096847 0.09367013
H  -1.41153281 -0.55527189 0.09523836
C  0.40438060 0.66723583 0.03928415
H  -0.09799510 1.62284462 0.09235163
H  1.47494084 0.69540893 0.09213504
6
MD Step 26
C  -0.31180007 -0.57858834 0.04080775
H  0.26512980 -1.50236817 0.09647975
H  -1.41199044 -0.55759339 0.09812603
C  0.40767648 0.67141668 0.04089155
H  -0.09494145 1.62562769 0.09505619
H  1.47614793 0.69876590 0.09486256
6
MD Step 27
C  -0.31108994 -0.57871155 0.04243259
H  0.26418353 -1.50371638 0.09924703
H  -1.41203471 -0.56010332 0.10096224
C  0.41095137 0.67558964 0.04250329
H  -0.09200425 1.62841774 0.09772175
H  1.47763585 0.70205758 0.09756369
6
MD Step 28
C  -0.31038147 -0.57880439 0.04406575
H  0.26297095 -1.50500133 0.10196960
H  -1.41165080 -0.56278524 0.10374381
C  0.41419777 0.67974460 0.04411922
H  -0.08919645 1.63123064 0.10034728
H  1.47944240 0.70528051 0.10023849
6
MD Step 29
C  -0.30967141 -0.57886057 0.04570721
H  0.26150603 -1.50621273 0.10464320
H  -1.41083273 -0.56561969 0.10646585
C  0.41740870 0.68387152 0.04573909
H  -0.08653178 1.63407891 0.10292988
H  1.48159622 0.70842910 0.10288479
6
MD Step 30
C  -0.30895626 -0.57887391 0.04735681
H  0.25980687 -1.50734198 0.10726183
H  -1.40958430 -0.56858393 0.10912199
C  0.42057775 0.68796056 0.04736259
H  -0.08402412 1.63697114 0.10546481
H  1.48411502 0.71149583 0.10549824
6
MD Step 31
C  -0.30823214 -0.57883849 0.04901445
H  0.25789333 -1.50838431 0.10982236
H  -1.40791817 -0.57165679 0.11170912
C  0.42369960 0.69200269 0.04898957
H  -0.08168250 1.63991641 0.10794995
H  1.48700801 0.71447672 0.10807674
6
MD Step 32
C  -0.30749500 -0.57874852 0.05067984
H  0.25579012 -1.50933608 0.11231873
H  -1.40585758 -0.57481256 0.11422141
C  0.42676947 0.69598896 0.05061974
H  -0.07951662 1.64291757 0.11038013
H  1.49027046 0.71736456 0.11061467
6
MD Step 33
C  -0.30674045 -0.57859848 0.05235272
H  0.25352358 -1.51019677 0.11474676
H  -1.40343387 -0.57802655 0.11665531
C  0.42978356 0.69991120 0.05225296
H  -0.07753194 1.64597621 0.11275182
H  1.49388801 0.72015459 0.11310761
6
MD Step 34
C  -0.30596394 -0.57838304 0.05403265
H  0.25112419 -1.51096729 0.11710044
H  -1.40068846 -0.58127074 0.11900575
C  0.43273868 0.70376147 0.05388898
H  -0.07573295 1.64908806 0.11505940
H  1.49783256 0.72284022 0.11554861
6
MD Step 35
C  -0.30516068 -0.57809713 0.05571923
H  0.24862270 -1.51165130 0.11937608
H  -1.39766854 -0.58451930 0.12127026
C  0.43563259 0.70753269 0.05552771
H  -0.07411946 1.65224787 0.11729928
H  1.50206846 0.72541789 0.11793242
6
MD Step 36
C  -0.30432580 -0.57773595 0.05741189
H  0.24605418 -1.51225327 0.12156751
H  -1.39443086 -0.58774251 0.12344422
C  0.43846343 0.71121795 0.05716894
H  -0.07269046 1.65544339 0.11946520
H  1.50654631 0.72788161 0.12025066
6
MD Step 37
C  -0.30345428 -0.57729495 0.05911014
H  0.24345150 -1.51277995 0.12367202
H  -1.39103349 -0.59091509 0.12552665
C  0.44123024 0.71481131 0.05881266
H  -0.07143976 1.65866323 0.12155400
H  1.51121441 0.73022974 0.12249798
6
MD Step 38
C  -0.30254119 -0.57676993 0.06081331
H  0.24085138 -1.51323822 0.12568420
H  -1.38754227 -0.59400791 0.12751416
C  0.44393221 0.71830695 0.06045870
H  -0.07036046 1.66188875 0.12355967
H  1.51600918 0.73245808 0.12466581
6
MD Step 39
C  -0.30158167 -0.57615700 0.06252065
H  0.23829053 -1.51363556 0.12759908
H  -1.38402514 -0.59699255 0.12940384
C  0.44656886 0.72169957 0.06210688
H  -0.06944294 1.66509854 0.12547638
H  1.52086257 0.73456340 0.12674567
6
MD Step 40
C  -0.30057104 -0.57545267 0.06423137
H  0.23580483 -1.51397957 0.12941216
H  -1.38054995 -0.59984180 0.13119333
C  0.44913997 0.72498431 0.06375701
H  -0.06867516 1.66826914 0.12729862
H  1.52570448 0.73654350 0.12872942
6
MD Step 41
C  -0.29950492 -0.57465383 0.06594464
H  0.23342904 -1.51427750 0.13111913
H  -1.37718285 -0.60252952 0.13288044
C  0.45164539 0.72815677 0.06540887
H  -0.06804318 1.67137508 0.12902094
H  1.53046415 0.73839690 0.13060908
6
MD Step 42
C  -0.29837837 -0.57375721 0.06766130
H  0.23116657 -1.51453964 0.13273736
H  -1.37394462 -0.60506462 0.13448420
C  0.45408759 0.73121628 0.06706385
H  -0.06752304 1.67442773 0.13065965
H  1.53513056 0.74014609 0.13240051
6
MD Step 43
C  -0.29718666 -0.57275978 0.06938251
H  0.22901550 -1.51477491 0.13428625
H  -1.37084552 -0.60746031 0.13602559
C  0.45646954 0.73416319 0.06872362
H  -0.06709109 1.67744354 0.13223321
H  1.53970469 0.74181586 0.13412227
6
MD Step 44
C  -0.29592675 -0.57165987 0.07110740
H  0.22700684 -1.51498641 0.13576021
H  -1.36794000 -0.60969139 0.13750068
C  0.45879114 0.73699443 0.07038786
H  -0.06673229 1.68039259 0.13373489
H  1.54412020 0.74340403 0.13576559
6
MD Step 45
C  -0.29459618 -0.57045632 0.07283506
H  0.22516899 -1.51517575 0.13715390
H  -1.36527565 -0.61173431 0.13890552
C  0.46105223 0.73970730 0.07205621
H  -0.06643072 1.68324437 0.13515822
H  1.54831444 0.74490890 0.13732224
6
MD Step 46
C  -0.29319337 -0.56914866 0.07456429
H  0.22353128 -1.51534228 0.13845917
H  -1.36289739 -0.61356286 0.14023295
C  0.46325205 0.74229889 0.07372791
H  -0.06617087 1.68596243 0.13649388
H  1.55222087 0.74632589 0.13878120
6
MD Step 47
C  -0.29171778 -0.56773722 0.07629354
H  0.22212179 -1.51548319 0.13966589
H  -1.36084358 -0.61515027 0.14147331
C  0.46538922 0.74476616 0.07540187
H  -0.06593779 1.68850659 0.13773067
H  1.55577346 0.74764832 0.14012963
6
MD Step 48
C  -0.29016971 -0.56622297 0.07802129
H  0.22096184 -1.51559381 0.14076544
H  -1.35913757 -0.61647499 0.14261784
C  0.46746210 0.74710635 0.07707688
H  -0.06571715 1.69084113 0.13885907
H  1.55891914 0.74887100 0.14135693
6
MD Step 49
C  -0.28855120 -0.56460829 0.07974504
H  0.22007328 -1.51566702 0.14174366
H  -1.35779838 -0.61751223 0.14365136
C  0.46946760 0.74931564 0.07875073
H  -0.06549743 1.69292085 0.13986403
H  1.56159900 0.74998228 0.14244686
6
MD Step 50
C  -0.28686574 -0.56289675 0.08146184
H  0.21946923 -1.51569446 0.14258695
H  -1.35682786 -0.61824409 0.14455832
C  0.47140184 0.75138997 0.08042063
H  -0.06526982 1.69470498 0.14073132
H  1.56376903 0.75097031 0.14338443
6
MD Step 51
C  -0.28511913 -0.56109399 0.08316738
H  0.21915477 -1.51566722 0.14327898
H  -1.35621375 -0.61865851 0.14531922
C  0.47325915 0.75332399 0.08208242
H  -0.06503032 1.69615147 0.14144411
H  1.56539386 0.75181875 0.14415231
6
MD Step 52
C  -0.28331954 -0.55920788 0.08485610
H  0.21911862 -1.51557812 0.14380599
H  -1.35592103 -0.61875898 0.14591594
C  0.47503231 0.75511139 0.08373055
H  -0.06478053 1.69722934 0.14198840
H  1.56646449 0.75251164 0.14473656
6
MD Step 53
C  -0.28147764 -0.55724878 0.08652109
H  0.21932657 -1.51542441 0.14416222
H  -1.35588732 -0.61857288 0.14633756
C  0.47671268 0.75674517 0.08535808
H  -0.06452797 1.69793123 0.14235854
H  1.56701362 0.75303880 0.14513263
6
MD Step 54
C  -0.27960518 -0.55522825 0.08815542
H  0.21971939 -1.51520929 0.14435948
H  -1.35602296 -0.61815640 0.14659133
C  0.47829180 0.75821928 0.08695797
H  -0.06428299 1.69829275 0.14256702
H  1.56713324 0.75340712 0.14535555
6
MD Step 55
C  -0.27771494 -0.55315910 0.08975203
H  0.22022244 -1.51494228 0.14442532
H  -1.35622774 -0.61758592 0.14670165
C  0.47976150 0.75952864 0.08852294
H  -0.06405675 1.69838591 0.14264237
H  1.56695779 0.75363933 0.14543743
6
MD Step 56
C  -0.27581674 -0.55105128 0.09130695
H  0.22076985 -1.51463232 0.14440104
H  -1.35641483 -0.61693293 0.14670984
C  0.48111720 0.76067215 0.09004877
H  -0.06385289 1.69830960 0.14262716
H  1.56663632 0.75377668 0.14542491
6
MD Step 57
C  -0.27392087 -0.54891563 0.09281608
H  0.22130979 -1.51428996 0.14432504
H  -1.35652505 -0.61625693 0.14665569
C  0.48235477 0.76164955 0.09153107
H  -0.06367278 1.69815238 0.14256077
H  1.56629112 0.75385775 0.14536059
6
MD Step 58
C  -0.27203626 -0.54676195 0.09427654
H  0.22181328 -1.51392333 0.14422711
H  -1.35653177 -0.61559440 0.14657138
C  0.48347197 0.76246258 0.09296669
H  -0.06351380 1.69797861 0.14247350
H  1.56599981 0.75391359 0.14527679
6
MD Step 59
C  -0.27017230 -0.54460101 0.09568510
H  0.22226601 -1.51354105 0.14412666
H  -1.35643372 -0.61496705 0.14647868
C  0.48446714 0.76311383 0.09435218
H  -0.06337257 1.69782525 0.14238476
H  1.56579830 0.75396358 0.14519372
6
MD Step 60
C  -0.26833951 -0.54244543 0.09703771
H  0.22266152 -1.51315404 0.14403462
H  -1.35624710 -0.61438915 0.14639048
C  0.48533893 0.76360666 0.09568331
H  -0.06324638 1.69770726 0.14230503
H  1.56569109 0.75401655 0.14512173
6
MD Step 61
C  -0.26654801 -0.54030784 0.09833068
H  0.22300322 -1.51277064 0.14395470
H  -1.35599722 -0.61386336 0.14631213
C  0.48608738 0.76394594 0.09695627
H  -0.06313185 1.69762267 0.14223747
H  1.56566000 0.75407436 0.14506334
6
MD Step 62
C  -0.26480699 -0.53820028 0.09956105
H  0.22330151 -1.51239430 0.14388573
H  -1.35570869 -0.61338233 0.14624355
C  0.48671403 0.76413817 0.09816799
H  -0.06302508 1.69756043 0.14218043
H  1.56567742 0.75413523 0.14501614
6
MD Step 63
C  -0.26313453 -0.53614589 0.10071955
H  0.22354678 -1.51205004 0.14382950
H  -1.35541698 -0.61296856 0.14618712
C  0.48721793 0.76418964 0.09930918
H  -0.06293013 1.69751339 0.14213468
H  1.56571931 0.75419258 0.14497975
6
MD Step 64
C  -0.26154719 -0.53416666 0.10179820
H  0.22373978 -1.51175071 0.14378499
H  -1.35514629 -0.61262805 0.14614217
C  0.48760064 0.76410938 0.10037192
H  -0.06284868 1.69747412 0.14209876
H  1.56576588 0.75424180 0.14495193
6
MD Step 65
C  -0.26005241 -0.53227400 0.10279558
H  0.22390765 -1.51147085 0.14374553
H  -1.35488474 -0.61232157 0.14610216
C  0.48786821 0.76390893 0.10135468
H  -0.06277281 1.69743432 0.14206686
H  1.56580942 0.75428589 0.14492744
6
MD Step 66
C  -0.25865589 -0.53047755 0.10371136
H  0.22407084 -1.51118687 0.14370657
H  -1.35461523 -0.61201729 0.14606260
C  0.48802807 0.76360092 0.10225709
H  -0.06269600 1.69739093 0.14203531
H  1.56585143 0.75432898 0.14490328
6
MD Step 67
C  -0.25736379 -0.52878790 0.10454480
H  0.22422676 -1.51090316 0.14366914
H  -1.35434130 -0.61172004 0.14602454
C  0.48808846 0.76319909 0.10307837
H  -0.06261966 1.69734642 0.14200506
H  1.56589359 0.75437109 0.14488036
6
MD Step 68
C  -0.25617827 -0.52721079 0.10529766
H  0.22436749 -1.51063062 0.14363521
H  -1.35407230 -0.61144315 0.14599002
C  0.48805897 0.76271737 0.10382021
H  -0.06254666 1.69730260 0.14197774
H  1.56593464 0.75441061 0.14486001
6
MD Step 69
C  -0.25500160 -0.52562074 0.10603564
H  0.22463311 -1.51010856 0.14357108
H  -1.35355550 -0.61091656 0.14592481
C  0.48795139 0.76213526 0.10454735
H  -0.06240666 1.69721650 0.14192606
H  1.56601064 0.75448540 0.14482163
6
MD Step 70
C  -0.25384005 -0.52402740 0.10675663
H  0.22499423 -1.50938560 0.14348380
H  -1.35283772 -0.61019390 0.14583624
C  0.48776990 0.76146068 0.10525771
H  -0.06221258 1.69709350 0.14185565
H  1.56611029 0.75458727 0.14476949
6
MD Step 71
C  -0.25269573 -0.52243504 0.10746097
H  0.22540890 -1.50853798 0.14338366
H  -1.35199436 -0.60935537 0.14573493
C  0.48751883 0.76070007 0.10595164
H  -0.06198478 1.69694390 0.14177470
H  1.56621778 0.75470424 0.14470973
6
MD Step 72
C  -0.25157176 -0.52084945 0.10814821
H  0.22584309 -1.50763157 0.14327908
H  -1.35109195 -0.60846819 0.14562961
C  0.48720287 0.75986063 0.10662874
H  -0.06174083 1.69677695 0.14168991
H  1.56631924 0.75482617 0.14464731
6
MD Step 73
C  -0.25047036 -0.51927524 0.10881840
H  0.22627916 -1.50670250 0.14317448
H  -1.35016812 -0.60756830 0.14552490
C  0.48682674 0.75894920 0.10728909
H  -0.06149027 1.69659733 0.14160478
H  1.56640589 0.75494739 0.14458476
6
MD Step 74
C  -0.24939656 -0.51772106 0.10946984
H  0.22669554 -1.50579725 0.14307515
H  -1.34927067 -0.60670066 0.14542623
C  0.48639616 0.75797495 0.10793105
H  -0.06124553 1.69641235 0.14152351
H  1.56646954 0.75506115 0.14452514
6
MD Step 75
C  -0.24835535 -0.51619560 0.11010087
H  0.22707807 -1.50494783 0.14298444
H  -1.34843238 -0.60589547 0.14533698
C  0.48591719 0.75694755 0.10855301
H  -0.06101519 1.69622744 0.14144882
H  1.56650599 0.75516296 0.14447041
6
MD Step 76
C  -0.24735322 -0.51470987 0.11070889
H  0.22741398 -1.50418393 0.14290523
H  -1.34768270 -0.60518017 0.14525992
C  0.48539690 0.75587858 0.10915246
H  -0.06080732 1.69604877 0.14138310
H  1.56651425 0.75524915 0.14442230
6
MD Step 77
C  -0.24639753 -0.51327625 0.11129080
H  0.22769583 -1.50352428 0.14283901
H  -1.34703918 -0.60457127 0.14519636
C  0.48484324 0.75478120 0.10972637
H  -0.06062717 1.69588161 0.14132768
H  1.56649732 0.75531798 0.14438181
6
MD Step 78
C  -0.24549536 -0.51190687 0.11184366
H  0.22792717 -1.50296372 0.14278461
H  -1.34649501 -0.60406228 0.14514488
C  0.48426460 0.75366906 0.11027184
H  -0.06047353 1.69572728 0.14128173
H  1.56646164 0.75537110 0.14434836
6
MD Step 79
C  -0.24465438 -0.51061485 0.11236406
H  0.22811601 -1.50248796 0.14273989
H  -1.34603434 -0.60363778 0.14510312
C  0.48367031 0.75255741 0.11078554
H  -0.06034273 1.69558584 0.14124368
H  1.56641483 0.75541159 0.14432079
6
MD Step 80
C  -0.24388167 -0.50941268 0.11284881
H  0.22827334 -1.50207638 0.14270221
H  -1.34563586 -0.60327635 0.14506827
C  0.48307007 0.75146182 0.11126430
H  -0.06022931 1.69545570 0.14121142
H  1.56636317 0.75544321 0.14429755
6
MD Step 81
C  -0.24318366 -0.50831199 0.11329487
H  0.22840826 -1.50171254 0.14266953
H  -1.34528349 -0.60296081 0.14503828
C  0.48247399 0.75039816 0.11170513
H  -0.06012883 1.69533528 0.14118334
H  1.56631004 0.75546883 0.14427741
6
MD Step 82
C  -0.24256354 -0.50731963 0.11370088
H  0.22853021 -1.50137641 0.14263979
H  -1.34495840 -0.60267192 0.14501119
C  0.48189051 0.74937898 0.11210668
H  -0.06003579 1.69521982 0.14115768
H  1.56625452 0.75549070 0.14425907
6
MD Step 83
C  -0.24202536 -0.50644396 0.11406454
H  0.22863638 -1.50107755 0.14261379
H  -1.34467039 -0.60241736 0.14498776
C  0.48132965 0.74841922 0.11246668
H  -0.05995284 1.69511281 0.14113512
H  1.56619805 0.75550829 0.14424298
6
MD Step 84
C  -0.24156880 -0.50568662 0.11438595
H  0.22872870 -1.50081136 0.14259104
H  -1.34441473 -0.60219288 0.14496748
C  0.48079836 0.74752818 0.11278517
H  -0.05987874 1.69501317 0.14111526
H  1.56614101 0.75552210 0.14422887
6
MD Step 85
C  -0.24119679 -0.50505476 0.11466244
H  0.22880064 -1.50059889 0.14257312
H  -1.34421099 -0.60201537 0.14495166
C  0.48030797 0.74672234 0.11305950
H  -0.05981946 1.69493044 0.14109955
H  1.56609097 0.75553174 0.14421776
6
MD Step 86
C  -0.24090878 -0.50455015 0.11489301
H  0.22885690 -1.50043081 0.14255899
H  -1.34404989 -0.60187554 0.14493923
C  0.47986771 0.74601413 0.11328865
H  -0.05977245 1.69486363 0.14108715
H  1.56604958 0.75553882 0.14420900
6
MD Step 87
C  -0.24070407 -0.50417498 0.11507578
H  0.22890415 -1.50029021 0.14254718
H  -1.34391557 -0.60175844 0.14492885
C  0.47948912 0.74541919 0.11347066
H  -0.05973303 1.69480740 0.14107675
H  1.56601399 0.75554466 0.14420164
6
MD Step 88
C  -0.24058014 -0.50392920 0.11520869
H  0.22893715 -1.50019035 0.14253894
H  -1.34382083 -0.60167590 0.14492173
C  0.47918519 0.74495464 0.11360343
H  -0.05970494 1.69476577 0.14106944
H  1.56598581 0.75554808 0.14419647
6
MD Step 89
C  -0.24052866 -0.50380393 0.11529235
H  0.22895460 -1.50013428 0.14253436
H  -1.34376722 -0.60163046 0.14491779
C  0.47896562 0.74463119 0.11368742
H  -0.05968916 1.69474083 0.14106537
H  1.56596866 0.75554929 0.14419364
6
MD Step 90
C  -0.24053792 -0.50378714 0.11532610
H  0.22896819 -1.50009957 0.14253110
H  -1.34373351 -0.60159963 0.14491471
C  0.47884648 0.74446742 0.11372179
H  -0.05967941 1.69473044 0.14106261
H  1.56596492 0.75555238 0.14419161
6
MD Step 91
C  -0.24058266 -0.50384962 0.11531135
H  0.22896155 -1.50010845 0.14253304
H  -1.34374662 -0.60161136 0.14491724
C  0.47884978 0.74448606 0.11370756
H  -0.05968171 1.69472396 0.14106386
H  1.56594880 0.75554739 0.14419259
6
MD Step 92
C  -0.24059089 -0.50388175 0.11528324
H  0.22902332 -1.49996668 0.14251282
H  -1.34357053 -0.60147208 0.14489344
C  0.47893347 0.74460565 0.11367921
H  -0.05964363 1.69472501 0.14104951
H  1.56603753 0.75557988 0.14418224
6
MD Step 93
C  -0.24066099 -0.50400998 0.11522296
H  0.22980738 -1.49799619 0.14226523
H  -1.34127657 -0.59963570 0.14461618
C  0.47906043 0.74480488 0.11361925
H  -0.05910752 1.69448274 0.14086595
H  1.56675444 0.75591363 0.14405116
6
MD Step 94
C  -0.24074473 -0.50415103 0.11516630
H  0.23090340 -1.49521560 0.14193166
H  -1.33814658 -0.59707311 0.14425211
C  0.47915954 0.74496727 0.11356339
H  -0.05834537 1.69401938 0.14061319
H  1.56748172 0.75632961 0.14387023
6
MD Step 95
C  -0.24083712 -0.50429899 0.11511395
H  0.23225325 -1.49182908 0.14153524
H  -1.33444140 -0.59395504 0.14382824
C  0.47923021 0.74508808 0.11351247
H  -0.05741126 1.69336136 0.14030777
H  1.56812633 0.75679431 0.14365058
6
MD Step 96
C  -0.24093272 -0.50444814 0.11506586
H  0.23384587 -1.48794050 0.14108491
H  -1.33030503 -0.59035141 0.14335546
C  0.47927392 0.74516504 0.11346663
H  -0.05633246 1.69253081 0.13995586
H  1.56864605 0.75729463 0.14339585
6
MD Step 97
C  -0.24102555 -0.50459229 0.11502184
H  0.23568575 -1.48362807 0.14058535
H  -1.32585256 -0.58630288 0.14283982
C  0.47929253 0.74519623 0.11342586
H  -0.05512970 1.69155167 0.13956049
H  1.56901736 0.75782375 0.14310747
6
MD Step 98
C  -0.24110911 -0.50472479 0.11498161
H  0.23777986 -1.47897375 0.14004084
H  -1.32120403 -0.58184950 0.14228689
C  0.47928805 0.74517975 0.11339011
H  -0.05382523 1.69045235 0.13912445
H  1.56922386 0.75837573 0.14278672
6
MD Step 99
C  -0.24117646 -0.50483861 0.11494486
H  0.24013593 -1.47406407 0.13945562
H  -1.31648478 -0.57703271 0.14170212
C  0.47926248 0.74511372 0.11335927
H  -0.05244294 1.68926479 0.13865053
H  1.56925508 0.75894496 0.14243494
6
MD Step 100
C  -0.24122049 -0.50492650 0.11491127
H  0.24276325 -1.46898478 0.13883347
H  -1.31181921 -0.57189169 0.14109047
C  0.47921780 0.74499634 0.11333324
H  -0.05100694 1.68802255 0.13814121
H  1.56910607 0.75952644 0.14205337
6
MD Step 101
C  -0.24123401 -0.50498121 0.11488050
H  0.24567264 -1.46381821 0.13817758
H  -1.30732729 -0.56646194 0.14045623
C  0.47915588 0.74482592 0.11331187
H  -0.04954071 1.68675935 0.13759848
H  1.56877677 0.76011581 0.14164302
6
MD Step 102
C  -0.24121003 -0.50499559 0.11485220
H  0.24886947 -1.45865368 0.13749202
H  -1.30313278 -0.56078713 0.13980445
C  0.47907847 0.74460099 0.11329501
H  -0.04807007 1.68551111 0.13702508
H  1.56827182 0.76070790 0.14120560
6
MD Step 103
C  -0.24114190 -0.50496282 0.11482607
H  0.25235584 -1.45357849 0.13678085
H  -1.29935253 -0.55491227 0.13914008
C  0.47898714 0.74432034 0.11328252
H  -0.04662065 1.68431314 0.13642385
H  1.56760056 0.76129753 0.14074305
6
MD Step 104
C  -0.24102359 -0.50487635 0.11480184
H  0.25605065 -1.44879654 0.13606462
H  -1.29618635 -0.54901966 0.13848336
C  0.47888326 0.74398336 0.11327425
H  -0.04525171 1.68322791 0.13581152
H  1.56679067 0.76186561 0.14026815
6
MD Step 105
C  -0.24085007 -0.50473060 0.11477928
H  0.25994393 -1.44437319 0.13534693
H  -1.29370653 -0.54315191 0.13783806
C  0.47876784 0.74358953 0.11327004
H  -0.04398338 1.68228227 0.13519083
H  1.56586258 0.76240797 0.13978322
6
MD Step 106
C  -0.24061757 -0.50452104 0.11475816
H  0.26402053 -1.44036145 0.13463105
H  -1.29196221 -0.53734925 0.13720738
C  0.47864163 0.74313888 0.11326974
H  -0.04283254 1.68149771 0.13456435
H  1.56483925 0.76292081 0.13929066
6
MD Step 107
C  -0.24032370 -0.50424426 0.11473833
H  0.26825033 -1.43681091 0.13392158
H  -1.29098271 -0.53166316 0.13659540
C  0.47850516 0.74263214 0.11327317
H  -0.04181528 1.68089176 0.13393595
H  1.56374777 0.76339948 0.13879405
6
MD Step 108
C  -0.23996755 -0.50389812 0.11471968
H  0.27259111 -1.43376003 0.13322370
H  -1.29076988 -0.52614984 0.13600638
C  0.47835875 0.74207073 0.11328020
H  -0.04094463 1.68047564 0.13331015
H  1.56261813 0.76383918 0.13829765
6
MD Step 109
C  -0.23954969 -0.50348176 0.11470216
H  0.27699935 -1.43122517 0.13254132
H  -1.29129363 -0.52085484 0.13544313
C  0.47820252 0.74145673 0.11329067
H  -0.04022729 1.68025179 0.13269054
H  1.56147954 0.76423641 0.13780517
6
MD Step 110
C  -0.23907217 -0.50299560 0.11468576
H  0.28141801 -1.42921103 0.13187924
H  -1.29249594 -0.51582971 0.13490891
C  0.47803645 0.74079297 0.11330445
H  -0.03966650 1.68021554 0.13208165
H  1.56036276 0.76458755 0.13732114
6
MD Step 111
C  -0.23853838 -0.50244136 0.11467052
H  0.28578226 -1.42770620 0.13124230
H  -1.29429107 -0.51112467 0.13440669
C  0.47786045 0.74008302 0.11332140
H  -0.03926054 1.68035425 0.13148823
H  1.55929771 0.76488959 0.13685034
6
MD Step 112
C  -0.23795285 -0.50182190 0.11465648
H  0.29002590 -1.42668159 0.13063464
H  -1.29657045 -0.50678211 0.13393865
C  0.47767436 0.73933109 0.11334141
H  -0.03900222 1.68064753 0.13091459
H  1.55831112 0.76514058 0.13639723
6
MD Step 113
C  -0.23732100 -0.50114113 0.11464374
H  0.29408418 -1.42609285 0.13005968
H  -1.29920946 -0.50283545 0.13350621
C  0.47747807 0.73854195 0.11336437
H  -0.03887936 1.68106860 0.13036447
H  1.55742531 0.76533972 0.13596579
6
MD Step 114
C  -0.23664904 -0.50040396 0.11463239
H  0.29788794 -1.42588530 0.12952126
H  -1.30206996 -0.49931702 0.13311097
C  0.47727159 0.73772100 0.11339016
H  -0.03887610 1.68158511 0.12984220
H  1.55665914 0.76548682 0.13556033
6
MD Step 115
C  -0.23594376 -0.49961624 0.11462255
H  0.30136420 -1.42599545 0.12902394
H  -1.30500379 -0.49625828 0.13275498
C  0.47705513 0.73687421 0.11341867
H  -0.03897317 1.68215991 0.12935293
H  1.55602743 0.76558249 0.13518568
6
MD Step 116
C  -0.23521246 -0.49878476 0.11461431
H  0.30443468 -1.42635218 0.12857364
H  -1.30785426 -0.49369178 0.13244117
C  0.47682921 0.73600826 0.11344979
H  -0.03914806 1.68275159 0.12890332
H  1.55554068 0.76562823 0.13484758
6
MD Step 117
C  -0.23446286 -0.49791724 0.11460779
H  0.30702107 -1.42687721 0.12817745
H  -1.31046211 -0.49164657 0.13217313
C  0.47659479 0.73513052 0.11348337
H  -0.03937502 1.68331587 0.12850142
H  1.55520327 0.76562706 0.13455243
6
MD Step 118
C  -0.23370359 -0.49702302 0.11460308
H  0.30902886 -1.42748258 0.12784690
H  -1.31265147 -0.49016148 0.13195725
C  0.47635350 0.73424974 0.11351924
H  -0.03962371 1.68380313 0.12816001
H  1.55501496 0.76558402 0.13430966
6
MD Step 119
C  -0.23294528 -0.49611441 0.11460029
H  0.31034126 -1.42806246 0.12760064
H  -1.31421931 -0.48928617 0.13180415
C  0.47610812 0.73337742 0.11355709
H  -0.03985575 1.68415646 0.12789971
H  1.55496817 0.76550857 0.13413340
6
MD Step 120
C  -0.23220396 -0.49521087 0.11459949
H  0.31081620 -1.42847358 0.12746963
H  -1.31492042 -0.48907368 0.13173106
C  0.47586381 0.73253172 0.11359630
H  -0.04001703 1.68430921 0.12775503
H  1.55503954 0.76542083 0.13404559
6
MD Step 121
C  -0.23151730 -0.49435903 0.11460075
H  0.31030674 -1.42846959 0.12751105
H  -1.31444483 -0.48952817 0.13176706
C  0.47563356 0.73175595 0.11363502
H  -0.04001213 1.68418413 0.12779151
H  1.55515569 0.76537486 0.13408333
6
MD Step 122
C  -0.23096754 -0.49366218 0.11460391
H  0.30976203 -1.42805924 0.12764113
H  -1.31366697 -0.48980389 0.13184219
C  0.47544627 0.73114407 0.11366872
H  -0.03984877 1.68399584 0.12793371
H  1.55509644 0.76544725 0.13417308
6
MD Step 123
C  -0.23050704 -0.49306446 0.11460871
H  0.31011164 -1.42811520 0.12759508
H  -1.31401030 -0.48952007 0.13181013
C  0.47528761 0.73064189 0.11369971
H  -0.03986806 1.68406045 0.12788787
H  1.55503231 0.76545164 0.13413790
6
MD Step 124
C  -0.23017785 -0.49262254 0.11461444
H  0.31069629 -1.42881322 0.12739582
H  -1.31500296 -0.48935770 0.13170394
C  0.47517268 0.73029432 0.11372491
H  -0.04014190 1.68428016 0.12766387
H  1.55520985 0.76528909 0.13400776
6
MD Step 125
C  -0.22990394 -0.49224140 0.11462146
H  0.31039379 -1.42892331 0.12738680
H  -1.31478211 -0.48968593 0.13171057
C  0.47507580 0.73001592 0.11374891
H  -0.04018410 1.68420445 0.12764595
H  1.55532942 0.76521739 0.13401143
6
MD Step 126
C  -0.22969943 -0.49194360 0.11462904
H  0.30961410 -1.42796803 0.12764633
H  -1.31342171 -0.48989045 0.13184964
C  0.47500283 0.72981976 0.11377004
H  -0.03980638 1.68387462 0.12793809
H  1.55507190 0.76542535 0.13418262
6
MD Step 127
C  -0.22952138 -0.49167212 0.11463783
H  0.30950527 -1.42766659 0.12771375
H  -1.31310235 -0.48983262 0.13188300