2
MD Step 0
Li  0.00000000 0.00000000 0.00000000
F  0.00000000 0.00000000 1.50000000
2
MD Step 1
Li  0.00208273 0.00208230 0.00214206
F  0.00125923 0.00125903 1.50123719
2
MD Step 2
Li  0.00416541 0.00416454 0.00440081
F  0.00251849 0.00251808 1.50243175
2
MD Step 3
Li  0.00624795 0.00624665 0.00677466
F  0.00377779 0.00377717 1.50358426
2
MD Step 4
Li  0.00833031 0.00832858 0.00926174
F  0.00503715 0.00503634 1.50469540
2
MD Step 5
Li  0.01041243 0.01041027 0.01185995
F  0.00629661 0.00629559 1.50576594
2
MD Step 6
Li  0.01249426 0.01249166 0.01456694
F  0.00755617 0.00755495 1.50679673
2
MD Step 7
Li  0.01457574 0.01457270 0.01738009
F  0.00881586 0.00881443 1.50778874
2
MD Step 8
Li  0.01665682 0.01665335 0.02029652
F  0.01007569 0.01007406 1.50874302
2
MD Step 9
Li  0.01873747 0.01873357 0.02331309
F  0.01133569 0.01133385 1.50966072
2
MD Step 10
Li  0.02081765 0.02081331 0.02642640
F  0.01259585 0.01259381 1.51054307
2
MD Step 11
Li  0.02289731 0.02289254 0.02963276
F  0.01385621 0.01385396 1.51139142
2
MD Step 12
Li  0.02497644 0.02497124 0.03292823
F  0.01511675 0.01511430 1.51220722
2
MD Step 13
Li  0.02705501 0.02704938 0.03630859
F  0.01637751 0.01637485 1.51299200
2
MD Step 14
Li  0.02913301 0.02912695 0.03976934
F  0.01763847 0.01763561 1.51374741
2
MD Step 15
Li  0.03121043 0.03120393 0.04330571
F  0.01889964 0.01889657 1.51447520
2
MD Step 16
Li  0.03328727 0.03328034 0.04691266
F  0.02016103 0.02015776 1.51517720
2
MD Step 17
Li  0.03536353 0.03535617 0.05058484
F  0.02142262 0.02141915 1.51585536
2
MD Step 18
Li  0.03743923 0.03743144 0.05431667
F  0.02268442 0.02268074 1.51651174
2
MD Step 19
Li  0.03951440 0.03950617 0.05810225
F  0.02394642 0.02394253 1.51714847
2
MD Step 20
Li  0.04158906 0.04158041 0.06193545
F  0.02520860 0.02520451 1.51776781
2
MD Step 21
Li  0.04366327 0.04365418 0.06580985
F  0.02647094 0.02646665 1.51837210
2
MD Step 22
Li  0.04573708 0.04572756 0.06971877
F  0.02773344 0.02772894 1.51896378
2
MD Step 23
Li  0.04781055 0.04780060 0.07365529
F  0.02899605 0.02899135 1.51954537
2
MD Step 24
Li  0.04988375 0.04987337 0.07761225
F  0.03025877 0.03025385 1.52011949
2
MD Step 25
Li  0.05195678 0.05194597 0.08158225
F  0.03152154 0.03151643 1.52068885
2
MD Step 26
Li  0.05402974 0.05401849 0.08555769
F  0.03278435 0.03277902 1.52125623
2
MD Step 27
Li  0.05610273 0.05609105 0.08953077
F  0.03404714 0.03404161 1.52182446
2
MD Step 28
Li  0.05817587 0.05816376 0.09349351
F  0.03530987 0.03530414 1.52239648
2
MD Step 29
Li  0.06024931 0.06023677 0.09743778
F  0.03657250 0.03656656 1.52297524
2
MD Step 30
Li  0.06232318 0.06231021 0.10135533
F  0.03783497 0.03782883 1.52356376
2
MD Step 31
Li  0.06439765 0.06438425 0.10523780
F  0.03909722 0.03909087 1.52416510
2
MD Step 32
Li  0.06647288 0.06645905 0.10907680
F  0.04035919 0.04035264 1.52478232
2
MD Step 33
Li  0.06854906 0.06853480 0.11286386
F  0.04162082 0.04161406 1.52541851
2
MD Step 34
Li  0.07062638 0.07061168 0.11659057
F  0.04288203 0.04287507 1.52607676
2
MD Step 35
Li  0.07270503 0.07268990 0.12024852
F  0.04414275 0.04413559 1.52676013
2
MD Step 36
Li  0.07478523 0.07476966 0.12382944
F  0.04540291 0.04539554 1.52747163
2
MD Step 37
Li  0.07686718 0.07685119 0.12732518
F  0.04666243 0.04665485 1.52821426
2
MD Step 38
Li  0.07895113 0.07893470 0.13072777
F  0.04792122 0.04791344 1.52899093
2
MD Step 39
Li  0.08103728 0.08102042 0.13402950
F  0.04917920 0.04917121 1.52980444
2
MD Step 40
Li  0.08312588 0.08310858 0.13722291
F  0.05043628 0.05042810 1.53065752
2
MD Step 41
Li  0.08521716 0.08519942 0.14030093
F  0.05169239 0.05168400 1.53155276
2
MD Step 42
Li  0.08731135 0.08729317 0.14325684
F  0.05294744 0.05293885 1.53249262
2
MD Step 43
Li  0.08940868 0.08939007 0.14608437
F  0.05420134 0.05419254 1.53347937
2
MD Step 44
Li  0.09150938 0.09149033 0.14877775
F  0.05545401 0.05544501 1.53451514
2
MD Step 45
Li  0.09361367 0.09359418 0.15133173
F  0.05670536 0.05669616 1.53560184
2
MD Step 46
Li  0.09572176 0.09570183 0.15374163
F  0.05795533 0.05794593 1.53674118
2
MD Step 47
Li  0.09783386 0.09781348 0.15600340
F  0.05920383 0.05919423 1.53793464
2
MD Step 48
Li  0.09995015 0.09992934 0.15811364
F  0.06045080 0.06044100 1.53918345
2
MD Step 49
Li  0.10207082 0.10204955 0.16006962
F  0.06169618 0.06168617 1.54048863
2
MD Step 50
Li  0.10419601 0.10417430 0.16186932
F  0.06293990 0.06292969 1.54185090
2
MD Step 51
Li  0.10632587 0.10630371 0.16351143
F  0.06418191 0.06417151 1.54327075
2
MD Step 52
Li  0.10846051 0.10843791 0.16499540
F  0.06542218 0.06541157 1.54474837
2
MD Step 53
Li  0.11060004 0.11057698 0.16632139
F  0.06666066 0.06664986 1.54628371
2
MD Step 54
Li  0.11274452 0.11272101 0.16749031
F  0.06789733 0.06788633 1.54787643
2
MD Step 55
Li  0.11489400 0.11487005 0.16850380
F  0.06913218 0.06912098 1.54952595
2
MD Step 56
Li  0.11704851 0.11702410 0.16936420
F  0.07036518 0.07035379 1.55123139
2
MD Step 57
Li  0.11920805 0.11918318 0.17007456
F  0.07159636 0.07158477 1.55299164
2
MD Step 58
Li  0.12137257 0.12134725 0.17063860
F  0.07282571 0.07281392 1.55480536
2
MD Step 59
Li  0.12354203 0.12351625 0.17106064
F  0.07405325 0.07404127 1.55667095
2
MD Step 60
Li  0.12571634 0.12569010 0.17134564
F  0.07527903 0.07526685 1.55858662
2
MD Step 61
Li  0.12789538 0.12786868 0.17149909
F  0.07650307 0.07649070 1.56055034
2
MD Step 62
Li  0.13007902 0.13005186 0.17152699
F  0.07772544 0.07771287 1.56255993
