 Entering Gaussian System, Link 0=g16
 Initial command:
 /software/gaussian/g16-c01/avx2/g16/l1.exe "/gpfs/fs2/scratch/bweight/software/many_molecule_many_mode_NAMD/src/NAMD/EXAMPLE_2_BOMD_S1/G16/TD_NEW_S1/Gau-3280.inp" -scrdir="/gpfs/fs2/scratch/bweight/software/many_molecule_many_mode_NAMD/src/NAMD/EXAMPLE_2_BOMD_S1/G16/TD_NEW_S1/"
 Entering Link 1 = /software/gaussian/g16-c01/avx2/g16/l1.exe PID=      3281.
  
 Copyright (c) 1988-2019, Gaussian, Inc.  All Rights Reserved.
  
 This is part of the Gaussian(R) 16 program.  It is based on
 the Gaussian(R) 09 system (copyright 2009, Gaussian, Inc.),
 the Gaussian(R) 03 system (copyright 2003, Gaussian, Inc.),
 the Gaussian(R) 98 system (copyright 1998, Gaussian, Inc.),
 the Gaussian(R) 94 system (copyright 1995, Gaussian, Inc.),
 the Gaussian 92(TM) system (copyright 1992, Gaussian, Inc.),
 the Gaussian 90(TM) system (copyright 1990, Gaussian, Inc.),
 the Gaussian 88(TM) system (copyright 1988, Gaussian, Inc.),
 the Gaussian 86(TM) system (copyright 1986, Carnegie Mellon
 University), and the Gaussian 82(TM) system (copyright 1983,
 Carnegie Mellon University). Gaussian is a federally registered
 trademark of Gaussian, Inc.
  
 This software contains proprietary and confidential information,
 including trade secrets, belonging to Gaussian, Inc.
  
 This software is provided under written license and may be
 used, copied, transmitted, or stored only in accord with that
 written license.
  
 The following legend is applicable only to US Government
 contracts under FAR:
  
                    RESTRICTED RIGHTS LEGEND
  
 Use, reproduction and disclosure by the US Government is
 subject to restrictions as set forth in subparagraphs (a)
 and (c) of the Commercial Computer Software - Restricted
 Rights clause in FAR 52.227-19.
  
 Gaussian, Inc.
 340 Quinnipiac St., Bldg. 40, Wallingford CT 06492
  
  
 ---------------------------------------------------------------
 Warning -- This program may not be used in any manner that
 competes with the business of Gaussian, Inc. or will provide
 assistance to any competitor of Gaussian, Inc.  The licensee
 of this program is prohibited from giving any competitor of
 Gaussian, Inc. access to this program.  By using this program,
 the user acknowledges that Gaussian, Inc. is engaged in the
 business of creating and licensing software in the field of
 computational chemistry and represents and warrants to the
 licensee that it is not a competitor of Gaussian, Inc. and that
 it will not use this program in any manner prohibited above.
 ---------------------------------------------------------------
  

 Cite this work as:
 Gaussian 16, Revision C.01,
 M. J. Frisch, G. W. Trucks, H. B. Schlegel, G. E. Scuseria, 
 M. A. Robb, J. R. Cheeseman, G. Scalmani, V. Barone, 
 G. A. Petersson, H. Nakatsuji, X. Li, M. Caricato, A. V. Marenich, 
 J. Bloino, B. G. Janesko, R. Gomperts, B. Mennucci, H. P. Hratchian, 
 J. V. Ortiz, A. F. Izmaylov, J. L. Sonnenberg, D. Williams-Young, 
 F. Ding, F. Lipparini, F. Egidi, J. Goings, B. Peng, A. Petrone, 
 T. Henderson, D. Ranasinghe, V. G. Zakrzewski, J. Gao, N. Rega, 
 G. Zheng, W. Liang, M. Hada, M. Ehara, K. Toyota, R. Fukuda, 
 J. Hasegawa, M. Ishida, T. Nakajima, Y. Honda, O. Kitao, H. Nakai, 
 T. Vreven, K. Throssell, J. A. Montgomery, Jr., J. E. Peralta, 
 F. Ogliaro, M. J. Bearpark, J. J. Heyd, E. N. Brothers, K. N. Kudin, 
 V. N. Staroverov, T. A. Keith, R. Kobayashi, J. Normand, 
 K. Raghavachari, A. P. Rendell, J. C. Burant, S. S. Iyengar, 
 J. Tomasi, M. Cossi, J. M. Millam, M. Klene, C. Adamo, R. Cammi, 
 J. W. Ochterski, R. L. Martin, K. Morokuma, O. Farkas, 
 J. B. Foresman, and D. J. Fox, Gaussian, Inc., Wallingford CT, 2019.
 
 ******************************************
 Gaussian 16:  ES64L-G16RevC.01  3-Jul-2019
                29-Dec-2022 
 ******************************************
 %oldchk=../GS_NEW/geometry.chk
 %chk=geometry.chk
 %nprocshared=1
 Will use up to    1 processors via shared memory.
 %mem=5GB
 Copying data from "../GS_NEW/geometry.chk" to current chk file "geometry.chk"
 IOpt=  2 FromEx=T IUOpen= 4 IOptOp= 5 NList=   0 IFRang= 0 IUIn= 4 IUOut= 2.
 ----------------------------------------------------------------------
 # BLYP/STO-3G SCF=XQC TD=(singlets,nstates=2,root=1) FORCE nosym pop=f
 ull guess=read
 ----------------------------------------------------------------------
 1/10=7,30=1,38=1/1,3;
 2/12=2,15=1,17=6,18=5,40=1/2;
 3/6=3,11=9,25=1,30=1,71=1,74=402,116=-2/1,2,3,8;
 4/5=1/1;
 5/5=2,8=3,13=1,38=6/2,8;
 8/6=1,10=1,107=1,108=2/1;
 9/8=1,15=2,41=2,42=1,48=1,70=2/14;
 10/5=4,28=1,31=1/2;
 6/7=3,18=1/1;
 7/12=6,13=5,14=1,29=1,30=1/1,2,3,16;
 1/10=7,30=1/3;
 99//99;
 ---------
 MD Step 4
 ---------
 Symbolic Z-matrix:
 Charge =  0 Multiplicity = 1
 Li                    0.0061    0.0061    0.02436 
 H                     0.01584   0.01584   2.88999 
 

 GradGradGradGradGradGradGradGradGradGradGradGradGradGradGradGradGradGrad
 Berny optimization.
 Initialization pass.
 Trust Radius=3.00D-01 FncErr=1.00D-07 GrdErr=1.00D-07 EigMax=2.50D+02 EigMin=1.00D-04
 Number of steps in this run=      2 maximum allowed number of steps=      2.
 GradGradGradGradGradGradGradGradGradGradGradGradGradGradGradGradGradGrad

                          Input orientation:                          
 ---------------------------------------------------------------------
 Center     Atomic      Atomic             Coordinates (Angstroms)
 Number     Number       Type             X           Y           Z
 ---------------------------------------------------------------------
      1          3           0        0.006104    0.006103    0.024362
      2          1           0        0.015842    0.015842    2.889986
 ---------------------------------------------------------------------
 Symmetry turned off by external request.
 Stoichiometry    HLi
 Framework group  C*V[C*(HLi)]
 Deg. of freedom     1
 Full point group                 C*V     NOp   4
 Rotational constants (GHZ):           0.0000000          69.8353579          69.8353579
 Standard basis: STO-3G (5D, 7F)
     6 basis functions,    18 primitive gaussians,     6 cartesian basis functions
     2 alpha electrons        2 beta electrons
       nuclear repulsion energy         0.5539851503 Hartrees.
 NAtoms=    2 NActive=    2 NUniq=    2 SFac= 1.00D+00 NAtFMM=   60 NAOKFM=F Big=F
 Integral buffers will be    131072 words long.
 Regular integral format.
 Two-electron integral symmetry is turned off.
 One-electron integrals computed using PRISM.
 NBasis=     6 RedAO= T EigKep=  6.90D-01  NBF=     6
 NBsUse=     6 1.00D-06 EigRej= -1.00D+00 NBFU=     6
 Initial guess from the checkpoint file:  "geometry.chk"
 B after Tr=     0.000000    0.000000    0.000000
         Rot=    1.000000    0.000000    0.000000    0.000000 Ang=   0.00 deg.
 Keep J ints in memory in canonical form, NReq=846976.
 Requested convergence on RMS density matrix=1.00D-08 within  32 cycles.
 Requested convergence on MAX density matrix=1.00D-06.
 Requested convergence on             energy=1.00D-06.
 No special actions if energy rises.
 Skip diagonalization as Alpha Fock matrix is already diagonal.
 SCF Done:  E(RB-LYP) =  -7.84959979500     A.U. after    1 cycles
            NFock=  1  Conv=0.00D+00     -V/T= 1.9851
 QCSCF skips out because SCF is already converged.
 DoSCS=F DFT=T ScalE2(SS,OS)=  1.000000  1.000000
 ExpMin= 4.81D-02 ExpMax= 1.61D+01 ExpMxC= 1.61D+01 IAcc=3 IRadAn=         5 AccDes= 0.00D+00
 HarFok:  IExCor=  205 AccDes= 0.00D+00 IRadAn=         5 IDoV=-2 UseB2=F ITyADJ=14
 ICtDFT= 12500011 ScaDFX=  1.000000  1.000000  1.000000  1.000000
 Range of M.O.s used for correlation:     2     6
 NBasis=     6 NAE=     2 NBE=     2 NFC=     1 NFV=     0
 NROrb=      5 NOA=     1 NOB=     1 NVA=     4 NVB=     4

 **** Warning!!: The smallest alpha delta epsilon is  0.48997079D-01

 Keep J ints in memory in canonical form, NReq=868411.
     4 initial guesses have been made.
 Convergence on wavefunction:    0.000001000000000
 *** WARNING: Number of orthogonal guesses is            4
 Iteration     1 Dimension     4 NMult     0 NNew      4
 CISAX will form     4 AO SS matrices at one time.
 ***********************************************************************
 Excited states from <AA,BB:AA,BB> singles matrix:
 ***********************************************************************
 
 Ground to excited state transition densities written to RWF  633
 Ground to excited state transition electric dipole moments (Au):
       state          X           Y           Z        Dip. S.      Osc.
         1         0.0053      0.0053      1.5469      2.3929      0.1374
         2        -1.0930      1.0929      0.0000      2.3891      0.1994
 Ground to excited state transition velocity dipole moments (Au):
       state          X           Y           Z        Dip. S.      Osc.
         1        -0.0005     -0.0005     -0.1419      0.0201      0.1559
         2         0.1085     -0.1085     -0.0000      0.0235      0.1254
 Ground to excited state transition magnetic dipole moments (Au):
       state          X           Y           Z
         1        -0.0016      0.0016     -0.0000
         2         0.3592      0.3592     -0.0049
 Ground to excited state transition velocity quadrupole moments (Au):
       state          XX          YY          ZZ          XY          XZ          YZ
         1         0.0340      0.0340     -0.1523     -0.0000     -0.0022     -0.0022
         2         0.0030     -0.0030     -0.0000     -0.0000      0.0787     -0.0787
 <0|del|b> * <b|rxdel|0> + <0|del|b> * <b|delr+rdel|0>
 Rotatory Strengths (R) in cgs (10**-40 erg-esu-cm/Gauss)
       state          XX          YY          ZZ    R(velocity)    E-M Angle
         1        -0.0000      0.0000     -0.0000     -0.0000       90.00
         2       -85.9672     85.9672     -0.0000      0.0000       90.00
 1/2[<0|r|b>*<b|rxdel|0> + (<0|rxdel|b>*<b|r|0>)*]
 Rotatory Strengths (R) in cgs (10**-40 erg-esu-cm/Gauss)
       state          XX          YY          ZZ     R(length)
         1         0.0060     -0.0060      0.0000      0.0000
         2       277.6516   -277.6516      0.0000      0.0000
  1/2[<0|del|b>*<b|r|0> + (<0|r|b>*<b|del|0>)*] (Au)
       state          X           Y           Z        Dip. S.   Osc.(frdel)
         1        -0.0000     -0.0000     -0.2196      0.2196      0.1464
         2        -0.1186     -0.1186     -0.0000      0.2371      0.1581

 Excitation energies and oscillator strengths:
 
 Excited state symmetry could not be determined.
 Excited State   1:      Singlet-?Sym    2.3441 eV  528.91 nm  f=0.1374  <S**2>=0.000
       2 ->  3         0.70353
       2 ->  6        -0.22075
       2 <-  3        -0.19339
 This state for optimization and/or second-order correction.
 Total Energy, E(TD-HF/TD-DFT) =  -7.76345450025    
 Copying the excited state density for this state as the 1-particle RhoCI density.
 
 Excited state symmetry could not be determined.
 Excited State   2:      Singlet-?Sym    3.4064 eV  363.97 nm  f=0.1994  <S**2>=0.000
       2 ->  4         0.70765
 SavETr:  write IOETrn=   770 NScale= 10 NData=  16 NLR=1 NState=    2 LETran=      46.
          IDoAtm=11
          Differentiating once with respect to electric field.
                with respect to dipole field.
          Differentiating once with respect to nuclear coordinates.
 Keep J ints in memory in canonical form, NReq=848429.
          There are     1 degrees of freedom in the 1st order CPHF.  IDoFFX=0 NUNeed=     1.
 LinEq1:  Iter=  0 NonCon=     1 RMS=4.07D+00 Max=1.14D+01 NDo=     1
 AX will form     1 AO Fock derivatives at one time.
 LinEq1:  Iter=  1 NonCon=     1 RMS=2.32D+00 Max=6.47D+00 NDo=     1
 LinEq1:  Iter=  2 NonCon=     1 RMS=2.06D-02 Max=5.81D-02 NDo=     1
 LinEq1:  Iter=  3 NonCon=     1 RMS=1.99D-04 Max=5.62D-04 NDo=     1
 LinEq1:  Iter=  4 NonCon=     1 RMS=5.39D-09 Max=1.52D-08 NDo=     1
 LinEq1:  Iter=  5 NonCon=     0 RMS=1.14D-11 Max=3.22D-11 NDo=     1
 Linear equations converged to 1.000D-10 1.000D-09 after     5 iterations.
 End of Minotr F.D. properties file   721 does not exist.
 End of Minotr F.D. properties file   722 does not exist.
 End of Minotr F.D. properties file   788 does not exist.

 **********************************************************************

            Population analysis using the SCF Density.

 **********************************************************************

 Alpha  occ. eigenvalues --   -1.80423  -0.09980
 Alpha virt. eigenvalues --   -0.05081   0.01591   0.01591   0.08299
     Molecular Orbital Coefficients:
                           1         2         3         4         5
                           O         O         V         V         V
     Eigenvalues --    -1.80423  -0.09980  -0.05081   0.01591   0.01591
   1 1   Li 1S          0.98668  -0.17910  -0.22142   0.00000   0.00000
   2        2S          0.05040   0.61267   0.77048  -0.00000  -0.00000
   3        2PX        -0.00001   0.00067  -0.00168   0.70713   0.70707
   4        2PY        -0.00001   0.00067  -0.00168  -0.70708   0.70712
   5        2PZ        -0.00246   0.19703  -0.49509  -0.00000  -0.00481
   6 2   H  1S         -0.00446   0.66091  -0.44127  -0.00000  -0.00000
                           6
                           V
     Eigenvalues --     0.08299
   1 1   Li 1S         -0.09088
   2        2S          0.33751
   3        2PX         0.00298
   4        2PY         0.00298
   5        2PZ         0.87558
   6 2   H  1S         -0.66440
     Density Matrix:
                           1         2         3         4         5
   1 1   Li 1S          2.01123
   2        2S         -0.12000   0.75580
   3        2PX        -0.00026   0.00082   0.00000
   4        2PY        -0.00026   0.00082   0.00000   0.00000
   5        2PZ        -0.07544   0.24118   0.00026   0.00026   0.07766
   6 2   H  1S         -0.24553   0.80938   0.00089   0.00089   0.26046
                           6
   6 2   H  1S          0.87365
    Full Mulliken population analysis:
                           1         2         3         4         5
   1 1   Li 1S          2.01123
   2        2S         -0.02894   0.75580
   3        2PX         0.00000   0.00000   0.00000
   4        2PY         0.00000   0.00000   0.00000   0.00000
   5        2PZ         0.00000   0.00000   0.00000   0.00000   0.07766
   6 2   H  1S         -0.00072   0.11392   0.00000   0.00000   0.05657
                           6
   6 2   H  1S          0.87365
     Gross orbital populations:
                           1
   1 1   Li 1S          1.98157
   2        2S          0.84078
   3        2PX         0.00000
   4        2PY         0.00000
   5        2PZ         0.13422
   6 2   H  1S          1.04342
          Condensed to atoms (all electrons):
               1          2
     1  Li   2.786807   0.169774
     2  H    0.169774   0.873645
 Mulliken charges:
               1
     1  Li   0.043419
     2  H   -0.043419
 Sum of Mulliken charges =   0.00000
 Mulliken charges with hydrogens summed into heavy atoms:
               1
     1  Li   0.000000
 Electronic spatial extent (au):  <R**2>=             46.7418
 Charge=              0.0000 electrons
 Dipole moment (field-independent basis, Debye):
    X=             -0.0142    Y=             -0.0142    Z=             -4.1890  Tot=              4.1890
 Quadrupole moment (field-independent basis, Debye-Ang):
   XX=             -6.0532   YY=             -6.0532   ZZ=            -10.6345
   XY=             -0.0002   XZ=             -0.0408   YZ=             -0.0408
 Traceless Quadrupole moment (field-independent basis, Debye-Ang):
   XX=              1.5271   YY=              1.5271   ZZ=             -3.0542
   XY=             -0.0002   XZ=             -0.0408   YZ=             -0.0408
 Octapole moment (field-independent basis, Debye-Ang**2):
  XXX=             -0.1709  YYY=             -0.1709  ZZZ=            -25.3698  XYY=             -0.0570
  XXY=             -0.0570  XXZ=             -6.0433  XZZ=             -0.1092  YZZ=             -0.1092
  YYZ=             -6.0433  XYZ=             -0.0004
 Hexadecapole moment (field-independent basis, Debye-Ang**3):
 XXXX=            -16.7067 YYYY=            -16.7067 ZZZZ=            -92.9294 XXXY=             -0.0018
 XXXZ=             -0.2197 YYYX=             -0.0018 YYYZ=             -0.2197 ZZZX=             -0.3012
 ZZZY=             -0.3012 XXYY=             -5.5689 XXZZ=            -16.4150 YYZZ=            -16.4150
 XXYZ=             -0.0732 YYXZ=             -0.0732 ZZXY=             -0.0012
 N-N= 5.539851502918D-01 E-N=-1.937619225276D+01  KE= 7.968490066390D+00
 Orbital energies and kinetic energies (alpha):
                                 1                 2
   1         O                -1.804226          3.480417
   2         O                -0.099803          0.503828
   3         V                -0.050806          0.473293
   4         V                 0.015909          0.319682
   5         V                 0.015909          0.319682
   6         V                 0.082995          0.613227
 Total kinetic energy from orbitals= 7.968490066390D+00
 Calling FoFJK, ICntrl=  10005527 FMM=F ISym2X=0 I1Cent= 0 IOpClX= 0 NMat=1 NMatS=1 NMatT=0.
 -------------------------------------------------------------------
 Center     Atomic                   Forces (Hartrees/Bohr)
 Number     Number              X              Y              Z
 -------------------------------------------------------------------
      1        3           0.000112423    0.000112425    0.033060866
      2        1          -0.000112423   -0.000112425   -0.033060866
 -------------------------------------------------------------------
 Cartesian Forces:  Max     0.033060866 RMS     0.019087921

 GradGradGradGradGradGradGradGradGradGradGradGradGradGradGradGradGradGrad
 Berny optimization.
 Search for a local minimum.
 Step number   1 out of a maximum of    2
 All quantities printed in internal units (Hartrees-Bohrs-Radians)
 Second derivative matrix not updated -- first step.
 The second derivative matrix:
                          X1        Y1        Z1        X2        Y2
           X1           1.00000
           Y1           0.00000   1.00000
           Z1           0.00000   0.00000   1.00000
           X2           0.00000   0.00000   0.00000   1.00000
           Y2           0.00000   0.00000   0.00000   0.00000   1.00000
           Z2           0.00000   0.00000   0.00000   0.00000   0.00000
                          Z2
           Z2           1.00000
 ITU=  0
     Eigenvalues ---    1.00000   1.00000   1.00000   1.00000   1.00000
     Eigenvalues ---    1.00000
 Angle between quadratic step and forces=   0.00 degrees.
 Linear search not attempted -- first point.
 B after Tr=    -0.000000   -0.000000    0.000000
         Rot=    1.000000    0.000000   -0.000000   -0.000000 Ang=   0.00 deg.
 Variable       Old X    -DE/DX   Delta X   Delta X   Delta X     New X
                                 (Linear)    (Quad)   (Total)
    X1        0.01153   0.00011   0.00000   0.00011   0.00011   0.01165
    Y1        0.01153   0.00011   0.00000   0.00011   0.00011   0.01165
    Z1        0.04604   0.03306   0.00000   0.03306   0.03306   0.07910
    X2        0.02994  -0.00011   0.00000  -0.00011  -0.00011   0.02983
    Y2        0.02994  -0.00011   0.00000  -0.00011  -0.00011   0.02982
    Z2        5.46128  -0.03306   0.00000  -0.03306  -0.03306   5.42822
         Item               Value     Threshold  Converged?
 Maximum Force            0.033061     0.000450     NO 
 RMS     Force            0.019088     0.000300     NO 
 Maximum Displacement     0.033061     0.001800     NO 
 RMS     Displacement     0.019088     0.001200     NO 
 Predicted change in Energy=-1.093046D-03
 GradGradGradGradGradGradGradGradGradGradGradGradGradGradGradGradGradGrad

 Unable to Open any file for archive entry.
 1\1\GINC-BHD0001\Force\RBLYP TD-FC\STO-3G\H1Li1\BWEIGHT\29-Dec-2022\0\
 \# BLYP/STO-3G SCF=XQC TD=(singlets,nstates=2,root=1) FORCE nosym pop=
 full guess=read\\MD Step 4\\0,1\Li,0.00610353,0.00610291,0.02436219\H,
 0.01584225,0.01584182,2.88998647\\Version=ES64L-G16RevC.01\HF=-7.84959
 98\RMSD=0.000e+00\RMSF=1.909e-02\Dipole=-0.0019037,-0.0019037,-0.56031
 62\PG=C*V [C*(H1Li1)]\\@
 The archive entry for this job was punched.


 I (ERNEST RUTHERFORD) CAME INTO THE ROOM, WHICH WAS HALF DARK, AND PRESENTLY
 SPOTTED LORD KELVIN IN THE AUDIENCE AND REALIZED I WAS IN TROUBLE AT
 THE LAST PART OF MY SPEECH DEALING THE AGE OF THE EARTH, WHERE MY VIEWS
 CONFLICTED WITH HIS.  TO MY RELIEF KELVIN FELL FAST ASLEEP, BUT AS I CAME
 TO THE IMPORTANT POINT, I SAW THE OLD BIRD SIT UP AND COCK A BALEFUL GLANCE
 AT ME! THEN A SUDDEN INSPIRATION CAME AND I SAID LORD KELVIN HAD LIMITED
 THE AGE OF THE EARTH PROVIDED NO NEW SOURCE WAS DISCOVERED. THAT
 PROPHETIC UTTERANCE REFERS TO WHAT WE ARE NOW CONSIDERING TONIGHT, RADIUM!
 BEHOLD!  THE OLD BOY BEAMED UPON ME.
 Job cpu time:       0 days  0 hours  0 minutes  5.0 seconds.
 Elapsed time:       0 days  0 hours  0 minutes  5.3 seconds.
 File lengths (MBytes):  RWF=    272 Int=      0 D2E=      0 Chk=     32 Scr=     32
 Normal termination of Gaussian 16 at Thu Dec 29 00:17:12 2022.
