 Entering Gaussian System, Link 0=g16
 Initial command:
 /software/gaussian/g16-c01/avx2/g16/l1.exe "/gpfs/fs2/scratch/bweight/software/many_molecule_many_mode_NAMD/src/NAMD/EXAMPLE_2_BOMD_S1/G16/TD_NEW_S1/Gau-6671.inp" -scrdir="/gpfs/fs2/scratch/bweight/software/many_molecule_many_mode_NAMD/src/NAMD/EXAMPLE_2_BOMD_S1/G16/TD_NEW_S1/"
 Entering Link 1 = /software/gaussian/g16-c01/avx2/g16/l1.exe PID=      6672.
  
 Copyright (c) 1988-2019, Gaussian, Inc.  All Rights Reserved.
  
 This is part of the Gaussian(R) 16 program.  It is based on
 the Gaussian(R) 09 system (copyright 2009, Gaussian, Inc.),
 the Gaussian(R) 03 system (copyright 2003, Gaussian, Inc.),
 the Gaussian(R) 98 system (copyright 1998, Gaussian, Inc.),
 the Gaussian(R) 94 system (copyright 1995, Gaussian, Inc.),
 the Gaussian 92(TM) system (copyright 1992, Gaussian, Inc.),
 the Gaussian 90(TM) system (copyright 1990, Gaussian, Inc.),
 the Gaussian 88(TM) system (copyright 1988, Gaussian, Inc.),
 the Gaussian 86(TM) system (copyright 1986, Carnegie Mellon
 University), and the Gaussian 82(TM) system (copyright 1983,
 Carnegie Mellon University). Gaussian is a federally registered
 trademark of Gaussian, Inc.
  
 This software contains proprietary and confidential information,
 including trade secrets, belonging to Gaussian, Inc.
  
 This software is provided under written license and may be
 used, copied, transmitted, or stored only in accord with that
 written license.
  
 The following legend is applicable only to US Government
 contracts under FAR:
  
                    RESTRICTED RIGHTS LEGEND
  
 Use, reproduction and disclosure by the US Government is
 subject to restrictions as set forth in subparagraphs (a)
 and (c) of the Commercial Computer Software - Restricted
 Rights clause in FAR 52.227-19.
  
 Gaussian, Inc.
 340 Quinnipiac St., Bldg. 40, Wallingford CT 06492
  
  
 ---------------------------------------------------------------
 Warning -- This program may not be used in any manner that
 competes with the business of Gaussian, Inc. or will provide
 assistance to any competitor of Gaussian, Inc.  The licensee
 of this program is prohibited from giving any competitor of
 Gaussian, Inc. access to this program.  By using this program,
 the user acknowledges that Gaussian, Inc. is engaged in the
 business of creating and licensing software in the field of
 computational chemistry and represents and warrants to the
 licensee that it is not a competitor of Gaussian, Inc. and that
 it will not use this program in any manner prohibited above.
 ---------------------------------------------------------------
  

 Cite this work as:
 Gaussian 16, Revision C.01,
 M. J. Frisch, G. W. Trucks, H. B. Schlegel, G. E. Scuseria, 
 M. A. Robb, J. R. Cheeseman, G. Scalmani, V. Barone, 
 G. A. Petersson, H. Nakatsuji, X. Li, M. Caricato, A. V. Marenich, 
 J. Bloino, B. G. Janesko, R. Gomperts, B. Mennucci, H. P. Hratchian, 
 J. V. Ortiz, A. F. Izmaylov, J. L. Sonnenberg, D. Williams-Young, 
 F. Ding, F. Lipparini, F. Egidi, J. Goings, B. Peng, A. Petrone, 
 T. Henderson, D. Ranasinghe, V. G. Zakrzewski, J. Gao, N. Rega, 
 G. Zheng, W. Liang, M. Hada, M. Ehara, K. Toyota, R. Fukuda, 
 J. Hasegawa, M. Ishida, T. Nakajima, Y. Honda, O. Kitao, H. Nakai, 
 T. Vreven, K. Throssell, J. A. Montgomery, Jr., J. E. Peralta, 
 F. Ogliaro, M. J. Bearpark, J. J. Heyd, E. N. Brothers, K. N. Kudin, 
 V. N. Staroverov, T. A. Keith, R. Kobayashi, J. Normand, 
 K. Raghavachari, A. P. Rendell, J. C. Burant, S. S. Iyengar, 
 J. Tomasi, M. Cossi, J. M. Millam, M. Klene, C. Adamo, R. Cammi, 
 J. W. Ochterski, R. L. Martin, K. Morokuma, O. Farkas, 
 J. B. Foresman, and D. J. Fox, Gaussian, Inc., Wallingford CT, 2019.
 
 ******************************************
 Gaussian 16:  ES64L-G16RevC.01  3-Jul-2019
                29-Dec-2022 
 ******************************************
 %oldchk=../GS_NEW/geometry.chk
 %chk=geometry.chk
 %nprocshared=1
 Will use up to    1 processors via shared memory.
 %mem=5GB
 Copying data from "../GS_NEW/geometry.chk" to current chk file "geometry.chk"
 IOpt=  2 FromEx=T IUOpen= 4 IOptOp= 5 NList=   0 IFRang= 0 IUIn= 4 IUOut= 2.
 ----------------------------------------------------------------------
 # BLYP/STO-3G SCF=XQC TD=(singlets,nstates=2,root=1) FORCE nosym pop=f
 ull guess=read
 ----------------------------------------------------------------------
 1/10=7,30=1,38=1/1,3;
 2/12=2,15=1,17=6,18=5,40=1/2;
 3/6=3,11=9,25=1,30=1,71=1,74=402,116=-2/1,2,3,8;
 4/5=1/1;
 5/5=2,8=3,13=1,38=6/2,8;
 8/6=1,10=1,107=1,108=2/1;
 9/8=1,15=2,41=2,42=1,48=1,70=2/14;
 10/5=4,28=1,31=1/2;
 6/7=3,18=1/1;
 7/12=6,13=5,14=1,29=1,30=1/1,2,3,16;
 1/10=7,30=1/3;
 99//99;
 -----------
 MD Step 999
 -----------
 Symbolic Z-matrix:
 Charge =  0 Multiplicity = 1
 Li                    2.05785   1.82841   2.28488 
 H                     0.27939   1.85967   1.71367 
 

 GradGradGradGradGradGradGradGradGradGradGradGradGradGradGradGradGradGrad
 Berny optimization.
 Initialization pass.
 Trust Radius=3.00D-01 FncErr=1.00D-07 GrdErr=1.00D-07 EigMax=2.50D+02 EigMin=1.00D-04
 Number of steps in this run=      2 maximum allowed number of steps=      2.
 GradGradGradGradGradGradGradGradGradGradGradGradGradGradGradGradGradGrad

                          Input orientation:                          
 ---------------------------------------------------------------------
 Center     Atomic      Atomic             Coordinates (Angstroms)
 Number     Number       Type             X           Y           Z
 ---------------------------------------------------------------------
      1          3           0        2.057847    1.828409    2.284877
      2          1           0        0.279387    1.859669    1.713671
 ---------------------------------------------------------------------
 Symmetry turned off by external request.
 Stoichiometry    HLi
 Framework group  C*V[C*(HLi)]
 Deg. of freedom     1
 Full point group                 C*V     NOp   4
 Rotational constants (GHZ):           0.0000000         164.3149527         164.3149527
 Standard basis: STO-3G (5D, 7F)
     6 basis functions,    18 primitive gaussians,     6 cartesian basis functions
     2 alpha electrons        2 beta electrons
       nuclear repulsion energy         0.8497652850 Hartrees.
 NAtoms=    2 NActive=    2 NUniq=    2 SFac= 1.00D+00 NAtFMM=   60 NAOKFM=F Big=F
 Integral buffers will be    131072 words long.
 Regular integral format.
 Two-electron integral symmetry is turned off.
 One-electron integrals computed using PRISM.
 NBasis=     6 RedAO= T EigKep=  4.28D-01  NBF=     6
 NBsUse=     6 1.00D-06 EigRej= -1.00D+00 NBFU=     6
 Initial guess from the checkpoint file:  "geometry.chk"
 B after Tr=     0.000000    0.000000    0.000000
         Rot=    1.000000    0.000000    0.000000    0.000000 Ang=   0.00 deg.
 Keep J ints in memory in canonical form, NReq=846976.
 Requested convergence on RMS density matrix=1.00D-08 within  32 cycles.
 Requested convergence on MAX density matrix=1.00D-06.
 Requested convergence on             energy=1.00D-06.
 No special actions if energy rises.
 SCF Done:  E(RB-LYP) =  -7.93129364100     A.U. after    1 cycles
            NFock=  1  Conv=0.39D-08     -V/T= 2.0053
 QCSCF skips out because SCF is already converged.
 DoSCS=F DFT=T ScalE2(SS,OS)=  1.000000  1.000000
 ExpMin= 4.81D-02 ExpMax= 1.61D+01 ExpMxC= 1.61D+01 IAcc=3 IRadAn=         5 AccDes= 0.00D+00
 HarFok:  IExCor=  205 AccDes= 0.00D+00 IRadAn=         5 IDoV=-2 UseB2=F ITyADJ=14
 ICtDFT= 12500011 ScaDFX=  1.000000  1.000000  1.000000  1.000000
 Range of M.O.s used for correlation:     2     6
 NBasis=     6 NAE=     2 NBE=     2 NFC=     1 NFV=     0
 NROrb=      5 NOA=     1 NOB=     1 NVA=     4 NVB=     4

 **** Warning!!: The smallest alpha delta epsilon is  0.96009932D-01

 Keep J ints in memory in canonical form, NReq=868411.
     4 initial guesses have been made.
 Convergence on wavefunction:    0.000001000000000
 *** WARNING: Number of orthogonal guesses is            4
 Iteration     1 Dimension     4 NMult     0 NNew      4
 CISAX will form     4 AO SS matrices at one time.
 ***********************************************************************
 Excited states from <AA,BB:AA,BB> singles matrix:
 ***********************************************************************
 
 Ground to excited state transition densities written to RWF  633
 Ground to excited state transition electric dipole moments (Au):
       state          X           Y           Z        Dip. S.      Osc.
         1        -0.8523      0.0150     -0.2738      0.8016      0.0609
         2         0.4262      0.3446     -1.3083      2.0120      0.2291
 Ground to excited state transition velocity dipole moments (Au):
       state          X           Y           Z        Dip. S.      Osc.
         1         0.1223     -0.0022      0.0393      0.0165      0.0967
         2        -0.0576     -0.0465      0.1767      0.0367      0.1433
 Ground to excited state transition magnetic dipole moments (Au):
       state          X           Y           Z
         1         0.1451      0.3755     -0.4311
         2         0.7641     -0.1533      0.2086
 Ground to excited state transition velocity quadrupole moments (Au):
       state          XX          YY          ZZ          XY          XZ          YZ
         1         0.8864      0.0393      0.3812      0.4165      0.6428      0.1272
         2        -0.3515     -0.3230      1.4311     -0.3419      0.3064      0.4247
 <0|del|b> * <b|rxdel|0> + <0|del|b> * <b|delr+rdel|0>
 Rotatory Strengths (R) in cgs (10**-40 erg-esu-cm/Gauss)
       state          XX          YY          ZZ    R(velocity)    E-M Angle
         1         0.0000     -0.0000     -0.0000      0.0000       90.00
         2        -4.4784     59.6731    -55.1947      0.0000       90.00
 1/2[<0|r|b>*<b|rxdel|0> + (<0|rxdel|b>*<b|r|0>)*]
 Rotatory Strengths (R) in cgs (10**-40 erg-esu-cm/Gauss)
       state          XX          YY          ZZ     R(length)
         1        87.4349     -3.9778    -83.4571      0.0000
         2      -230.3072     37.3535    192.9536      0.0000
  1/2[<0|del|b>*<b|r|0> + (<0|r|b>*<b|del|0>)*] (Au)
       state          X           Y           Z        Dip. S.   Osc.(frdel)
         1        -0.1043     -0.0000     -0.0108      0.1151      0.0767
         2        -0.0245     -0.0160     -0.2312      0.2718      0.1812

 Excitation energies and oscillator strengths:
 
 Excited state symmetry could not be determined.
 Excited State   1:      Singlet-?Sym    3.0995 eV  400.02 nm  f=0.0609  <S**2>=0.000
       2 ->  3         0.70517
 This state for optimization and/or second-order correction.
 Total Energy, E(TD-HF/TD-DFT) =  -7.81739064311    
 Copying the excited state density for this state as the 1-particle RhoCI density.
 
 Excited state symmetry could not be determined.
 Excited State   2:      Singlet-?Sym    4.6481 eV  266.74 nm  f=0.2291  <S**2>=0.000
       2 ->  4         0.63066
       2 ->  5        -0.32100
 SavETr:  write IOETrn=   770 NScale= 10 NData=  16 NLR=1 NState=    2 LETran=      46.
          IDoAtm=11
          Differentiating once with respect to electric field.
                with respect to dipole field.
          Differentiating once with respect to nuclear coordinates.
 Keep J ints in memory in canonical form, NReq=848429.
          There are     1 degrees of freedom in the 1st order CPHF.  IDoFFX=0 NUNeed=     1.
 LinEq1:  Iter=  0 NonCon=     1 RMS=1.35D+00 Max=3.63D+00 NDo=     1
 AX will form     1 AO Fock derivatives at one time.
 LinEq1:  Iter=  1 NonCon=     1 RMS=2.96D-01 Max=7.99D-01 NDo=     1
 LinEq1:  Iter=  2 NonCon=     1 RMS=2.08D-03 Max=5.85D-03 NDo=     1
 LinEq1:  Iter=  3 NonCon=     1 RMS=2.86D-05 Max=8.02D-05 NDo=     1
 LinEq1:  Iter=  4 NonCon=     1 RMS=2.28D-07 Max=4.81D-07 NDo=     1
 LinEq1:  Iter=  5 NonCon=     0 RMS=1.18D-11 Max=3.05D-11 NDo=     1
 Linear equations converged to 1.000D-10 1.000D-09 after     5 iterations.
 End of Minotr F.D. properties file   721 does not exist.
 End of Minotr F.D. properties file   722 does not exist.
 End of Minotr F.D. properties file   788 does not exist.

 **********************************************************************

            Population analysis using the SCF Density.

 **********************************************************************

 Alpha  occ. eigenvalues --   -1.78178  -0.12677
 Alpha virt. eigenvalues --   -0.03076   0.03111   0.03111   0.26291
     Molecular Orbital Coefficients:
                           1         2         3         4         5
                           O         O         V         V         V
     Eigenvalues --    -1.78178  -0.12677  -0.03076   0.03111   0.03111
   1 1   Li 1S          0.98658  -0.17392  -0.21983  -0.00000  -0.00000
   2        2S          0.05124   0.51031   0.79304   0.00000   0.00000
   3        2PX         0.00301  -0.27229   0.55804  -0.29450   0.08386
   4        2PY        -0.00005   0.00479  -0.00981   0.22343   0.97458
   5        2PZ         0.00097  -0.08745   0.17923   0.92916  -0.20777
   6 2   H  1S         -0.00347   0.57749  -0.23849  -0.00000  -0.00000
                           6
                           V
     Eigenvalues --     0.26291
   1 1   Li 1S          0.11304
   2        2S         -0.58249
   3        2PX         0.89143
   4        2PY        -0.01567
   5        2PZ         0.28631
   6 2   H  1S          1.03614
     Density Matrix:
                           1         2         3         4         5
   1 1   Li 1S          2.00716
   2        2S         -0.07640   0.52608
   3        2PX         0.10064  -0.27759   0.14830
   4        2PY        -0.00177   0.00488  -0.00261   0.00005
   5        2PZ         0.03232  -0.08916   0.04763  -0.00084   0.01530
   6 2   H  1S         -0.20772   0.58904  -0.31451   0.00553  -0.10101
                           6
   6 2   H  1S          0.66703
    Full Mulliken population analysis:
                           1         2         3         4         5
   1 1   Li 1S          2.00716
   2        2S         -0.01842   0.52608
   3        2PX         0.00000   0.00000   0.14830
   4        2PY         0.00000   0.00000   0.00000   0.00005
   5        2PZ         0.00000   0.00000   0.00000   0.00000   0.01530
   6 2   H  1S         -0.00772   0.19406   0.13605   0.00004   0.01403
                           6
   6 2   H  1S          0.66703
     Gross orbital populations:
                           1
   1 1   Li 1S          1.98102
   2        2S          0.70171
   3        2PX         0.28435
   4        2PY         0.00009
   5        2PZ         0.02933
   6 2   H  1S          1.00349
          Condensed to atoms (all electrons):
               1          2
     1  Li   2.660038   0.336468
     2  H    0.336468   0.667025
 Mulliken charges:
               1
     1  Li   0.003493
     2  H   -0.003493
 Sum of Mulliken charges =   0.00000
 Mulliken charges with hydrogens summed into heavy atoms:
               1
     1  Li   0.000000
 Electronic spatial extent (au):  <R**2>=            156.7756
 Charge=              0.0000 electrons
 Dipole moment (field-independent basis, Debye):
    X=              4.4612    Y=             -0.0784    Z=              1.4328  Tot=              4.6863
 Quadrupole moment (field-independent basis, Debye-Ang):
   XX=              9.7921   YY=             -5.8359   ZZ=              0.6879
   XY=              8.0485   XZ=             12.1717   YZ=              2.4577
 Traceless Quadrupole moment (field-independent basis, Debye-Ang):
   XX=              8.2441   YY=             -7.3840   ZZ=             -0.8601
   XY=              8.0485   XZ=             12.1717   YZ=              2.4577
 Octapole moment (field-independent basis, Debye-Ang**2):
  XXX=             21.3133  YYY=            -31.5043  ZZZ=            -12.5685  XYY=              8.3950
  XXY=             17.6684  XXZ=             26.6795  XZZ=             25.7387  YZZ=              0.8302
  YYZ=             -6.7809  XYZ=             22.0332
 Hexadecapole moment (field-independent basis, Debye-Ang**3):
 XXXX=             35.5073 YYYY=           -129.0829 ZZZZ=            -85.2352 XXXY=             38.4960
 XXXZ=             57.3477 YYYX=             -7.6900 YYYZ=            -53.6308 ZZZX=             44.3618
 ZZZY=            -24.2147 XXYY=             20.1099 XXZZ=             57.8469 YYZZ=            -25.6272
 XXYZ=             48.3078 YYXZ=             27.6370 ZZXY=             46.5117
 N-N= 8.497652850146D-01 E-N=-2.002270022482D+01  KE= 7.889681025909D+00
 Orbital energies and kinetic energies (alpha):
                                 1                 2
   1         O                -1.781775          3.479717
   2         O                -0.126770          0.465124
   3         V                -0.030760          0.411309
   4         V                 0.031113          0.319682
   5         V                 0.031113          0.319682
   6         V                 0.262909          0.971518
 Total kinetic energy from orbitals= 7.889681025909D+00
 Calling FoFJK, ICntrl=  10005527 FMM=F ISym2X=0 I1Cent= 0 IOpClX= 0 NMat=1 NMatS=1 NMatT=0.
 -------------------------------------------------------------------
 Center     Atomic                   Forces (Hartrees/Bohr)
 Number     Number              X              Y              Z
 -------------------------------------------------------------------
      1        3          -0.012958882    0.000226463   -0.004162827
      2        1           0.012958882   -0.000226463    0.004162827
 -------------------------------------------------------------------
 Cartesian Forces:  Max     0.012958882 RMS     0.007859454

 GradGradGradGradGradGradGradGradGradGradGradGradGradGradGradGradGradGrad
 Berny optimization.
 Search for a local minimum.
 Step number   1 out of a maximum of    2
 All quantities printed in internal units (Hartrees-Bohrs-Radians)
 Second derivative matrix not updated -- first step.
 The second derivative matrix:
                          X1        Y1        Z1        X2        Y2
           X1           0.04894
           Y1          -0.00086   1.00000
           Z1           0.01572  -0.00028   0.00505
           X2          -0.04894   0.00086  -0.01572   0.04894
           Y2           0.00086  -0.00002   0.00028  -0.00086   1.00000
           Z2          -0.01572   0.00028  -0.00505   0.01572  -0.00028
                          Z2
           Z2           0.00505
 ITU=  0
     Eigenvalues ---    0.10105
 Angle between quadratic step and forces=  15.00 degrees.
 Linear search not attempted -- first point.
 B after Tr=    -0.032060    0.000564   -0.010297
         Rot=    1.000000   -0.000000    0.000000   -0.000000 Ang=   0.00 deg.
 Variable       Old X    -DE/DX   Delta X   Delta X   Delta X     New X
                                 (Linear)    (Quad)   (Total)
    X1        3.88877  -0.01296   0.00000  -0.08759  -0.11965   3.76912
    Y1        3.45519   0.00023   0.00000   0.00154   0.00210   3.45730
    Z1        4.31779  -0.00416   0.00000  -0.02813  -0.03843   4.27936
    X2        0.52797   0.01296   0.00000   0.15171   0.11965   0.64761
    Y2        3.51426  -0.00023   0.00000  -0.00267  -0.00210   3.51216
    Z2        3.23837   0.00416   0.00000   0.04873   0.03843   3.27680
         Item               Value     Threshold  Converged?
 Maximum Force            0.012959     0.000450     NO 
 RMS     Force            0.007859     0.000300     NO 
 Maximum Displacement     0.119649     0.001800     NO 
 RMS     Displacement     0.072565     0.001200     NO 
 Predicted change in Energy=-1.711287D-03
 GradGradGradGradGradGradGradGradGradGradGradGradGradGradGradGradGradGrad

 Unable to Open any file for archive entry.
 1\1\GINC-BHD0001\Force\RBLYP TD-FC\STO-3G\H1Li1\BWEIGHT\29-Dec-2022\0\
 \# BLYP/STO-3G SCF=XQC TD=(singlets,nstates=2,root=1) FORCE nosym pop=
 full guess=read\\MD Step 999\\0,1\Li,2.05784675,1.82840903,2.2848771\H
 ,0.27938737,1.85966853,1.71367059\\Version=ES64L-G16RevC.01\HF=-7.9312
 936\RMSD=3.898e-09\RMSF=7.859e-03\Dipole=-0.7304698,0.0127484,-0.23466
 37\PG=C*V [C*(H1Li1)]\\@
 The archive entry for this job was punched.


 Not by the face shall a man be known, but by the mask.
                               -- Karen Blixen
 Job cpu time:       0 days  0 hours  0 minutes  4.6 seconds.
 Elapsed time:       0 days  0 hours  0 minutes  4.8 seconds.
 File lengths (MBytes):  RWF=    272 Int=      0 D2E=      0 Chk=     32 Scr=     32
 Normal termination of Gaussian 16 at Thu Dec 29 05:02:41 2022.
