 Entering Gaussian System, Link 0=g16
 Initial command:
 /software/gaussian/g16-c01/avx/g16/l1.exe "/gpfs/fs2/scratch/bweight/software/many_molecule_many_mode_NAMD/src/ELECTRONIC_STRUCTURE_CONTROL/EXAMPLE/G16/GS_NEW/Gau-4026.inp" -scrdir="/gpfs/fs2/scratch/bweight/software/many_molecule_many_mode_NAMD/src/ELECTRONIC_STRUCTURE_CONTROL/EXAMPLE/G16/GS_NEW/"
 Entering Link 1 = /software/gaussian/g16-c01/avx/g16/l1.exe PID=      4027.
  
 Copyright (c) 1988-2019, Gaussian, Inc.  All Rights Reserved.
  
 This is part of the Gaussian(R) 16 program.  It is based on
 the Gaussian(R) 09 system (copyright 2009, Gaussian, Inc.),
 the Gaussian(R) 03 system (copyright 2003, Gaussian, Inc.),
 the Gaussian(R) 98 system (copyright 1998, Gaussian, Inc.),
 the Gaussian(R) 94 system (copyright 1995, Gaussian, Inc.),
 the Gaussian 92(TM) system (copyright 1992, Gaussian, Inc.),
 the Gaussian 90(TM) system (copyright 1990, Gaussian, Inc.),
 the Gaussian 88(TM) system (copyright 1988, Gaussian, Inc.),
 the Gaussian 86(TM) system (copyright 1986, Carnegie Mellon
 University), and the Gaussian 82(TM) system (copyright 1983,
 Carnegie Mellon University). Gaussian is a federally registered
 trademark of Gaussian, Inc.
  
 This software contains proprietary and confidential information,
 including trade secrets, belonging to Gaussian, Inc.
  
 This software is provided under written license and may be
 used, copied, transmitted, or stored only in accord with that
 written license.
  
 The following legend is applicable only to US Government
 contracts under FAR:
  
                    RESTRICTED RIGHTS LEGEND
  
 Use, reproduction and disclosure by the US Government is
 subject to restrictions as set forth in subparagraphs (a)
 and (c) of the Commercial Computer Software - Restricted
 Rights clause in FAR 52.227-19.
  
 Gaussian, Inc.
 340 Quinnipiac St., Bldg. 40, Wallingford CT 06492
  
  
 ---------------------------------------------------------------
 Warning -- This program may not be used in any manner that
 competes with the business of Gaussian, Inc. or will provide
 assistance to any competitor of Gaussian, Inc.  The licensee
 of this program is prohibited from giving any competitor of
 Gaussian, Inc. access to this program.  By using this program,
 the user acknowledges that Gaussian, Inc. is engaged in the
 business of creating and licensing software in the field of
 computational chemistry and represents and warrants to the
 licensee that it is not a competitor of Gaussian, Inc. and that
 it will not use this program in any manner prohibited above.
 ---------------------------------------------------------------
  

 Cite this work as:
 Gaussian 16, Revision C.01,
 M. J. Frisch, G. W. Trucks, H. B. Schlegel, G. E. Scuseria, 
 M. A. Robb, J. R. Cheeseman, G. Scalmani, V. Barone, 
 G. A. Petersson, H. Nakatsuji, X. Li, M. Caricato, A. V. Marenich, 
 J. Bloino, B. G. Janesko, R. Gomperts, B. Mennucci, H. P. Hratchian, 
 J. V. Ortiz, A. F. Izmaylov, J. L. Sonnenberg, D. Williams-Young, 
 F. Ding, F. Lipparini, F. Egidi, J. Goings, B. Peng, A. Petrone, 
 T. Henderson, D. Ranasinghe, V. G. Zakrzewski, J. Gao, N. Rega, 
 G. Zheng, W. Liang, M. Hada, M. Ehara, K. Toyota, R. Fukuda, 
 J. Hasegawa, M. Ishida, T. Nakajima, Y. Honda, O. Kitao, H. Nakai, 
 T. Vreven, K. Throssell, J. A. Montgomery, Jr., J. E. Peralta, 
 F. Ogliaro, M. J. Bearpark, J. J. Heyd, E. N. Brothers, K. N. Kudin, 
 V. N. Staroverov, T. A. Keith, R. Kobayashi, J. Normand, 
 K. Raghavachari, A. P. Rendell, J. C. Burant, S. S. Iyengar, 
 J. Tomasi, M. Cossi, J. M. Millam, M. Klene, C. Adamo, R. Cammi, 
 J. W. Ochterski, R. L. Martin, K. Morokuma, O. Farkas, 
 J. B. Foresman, and D. J. Fox, Gaussian, Inc., Wallingford CT, 2019.
 
 ******************************************
 Gaussian 16:  ES64L-G16RevC.01  3-Jul-2019
                28-Dec-2022 
 ******************************************
 %chk=geometry.chk
 %nprocshared=1
 Will use up to    1 processors via shared memory.
 %mem=5GB
 ----------------------------------
 # BLYP/sto-3g FORCE nosym pop=full
 ----------------------------------
 1/10=7,30=1,38=1/1,3;
 2/12=2,15=1,17=6,18=5,40=1/2;
 3/6=3,11=2,25=1,30=1,71=1,74=402/1,2,3;
 4//1;
 5/5=2,38=5/2;
 6/7=3,28=1/1;
 7/29=1,30=1/1,2,3,16;
 1/10=7,30=1/3;
 99//99;
 ---------
 MD Step 1
 ---------
 Symbolic Z-matrix:
 Charge =  0 Multiplicity = 1
 Li                    0.        0.        0. 
 H                     0.        0.        1. 
 

 GradGradGradGradGradGradGradGradGradGradGradGradGradGradGradGradGradGrad
 Berny optimization.
 Initialization pass.
 Trust Radius=3.00D-01 FncErr=1.00D-07 GrdErr=1.00D-07 EigMax=2.50D+02 EigMin=1.00D-04
 Number of steps in this run=      2 maximum allowed number of steps=      2.
 GradGradGradGradGradGradGradGradGradGradGradGradGradGradGradGradGradGrad

                          Input orientation:                          
 ---------------------------------------------------------------------
 Center     Atomic      Atomic             Coordinates (Angstroms)
 Number     Number       Type             X           Y           Z
 ---------------------------------------------------------------------
      1          3           0        0.000000    0.000000    0.000000
      2          1           0        0.000000    0.000000    1.000000
 ---------------------------------------------------------------------
 Symmetry turned off by external request.
 Stoichiometry    HLi
 Framework group  C*V[C*(HLi)]
 Deg. of freedom     1
 Full point group                 C*V     NOp   4
 Rotational constants (GHZ):           0.0000000         573.4874142         573.4874142
 Standard basis: STO-3G (5D, 7F)
     6 basis functions,    18 primitive gaussians,     6 cartesian basis functions
     2 alpha electrons        2 beta electrons
       nuclear repulsion energy         1.5875316328 Hartrees.
 NAtoms=    2 NActive=    2 NUniq=    2 SFac= 1.00D+00 NAtFMM=   60 NAOKFM=F Big=F
 Integral buffers will be    131072 words long.
 Raffenetti 2 integral format.
 Two-electron integral symmetry is turned off.
 One-electron integrals computed using PRISM.
 NBasis=     6 RedAO= T EigKep=  2.31D-01  NBF=     6
 NBsUse=     6 1.00D-06 EigRej= -1.00D+00 NBFU=     6
 ExpMin= 4.81D-02 ExpMax= 1.61D+01 ExpMxC= 1.61D+01 IAcc=3 IRadAn=         5 AccDes= 0.00D+00
 Harris functional with IExCor=  402 and IRadAn=       5 diagonalized for initial guess.
 HarFok:  IExCor=  402 AccDes= 0.00D+00 IRadAn=         5 IDoV= 1 UseB2=F ITyADJ=14
 ICtDFT=  3500011 ScaDFX=  1.000000  1.000000  1.000000  1.000000
 FoFCou: FMM=F IPFlag=           0 FMFlag=      100000 FMFlg1=           0
         NFxFlg=           0 DoJE=T BraDBF=F KetDBF=T FulRan=T
         wScrn=  0.000000 ICntrl=       500 IOpCl=  0 I1Cent=   200000004 NGrid=           0
         NMat0=    1 NMatS0=      1 NMatT0=    0 NMatD0=    1 NMtDS0=    0 NMtDT0=    0
 Symmetry not used in FoFCou.
 Keep J ints in memory in canonical form, NReq=846976.
 Requested convergence on RMS density matrix=1.00D-08 within 128 cycles.
 Requested convergence on MAX density matrix=1.00D-06.
 Requested convergence on             energy=1.00D-06.
 No special actions if energy rises.
 SCF Done:  E(RB-LYP) =  -7.85074979042     A.U. after    8 cycles
            NFock=  8  Conv=0.21D-08     -V/T= 1.9553

 **********************************************************************

            Population analysis using the SCF Density.

 **********************************************************************

 Alpha  occ. eigenvalues --   -1.78719  -0.15069
 Alpha virt. eigenvalues --   -0.03226   0.03062   0.03062   0.40426
     Molecular Orbital Coefficients:
                           1         2         3         4         5
                           O         O         V         V         V
     Eigenvalues --    -1.78719  -0.15069  -0.03226   0.03062   0.03062
   1 1   Li 1S          0.97854  -0.27350  -0.19672  -0.00000  -0.00000
   2        2S          0.02958   0.39132   0.85289  -0.00000  -0.00000
   3        2PX         0.00000   0.00000  -0.00000  -0.12665   0.99195
   4        2PY        -0.00000  -0.00000   0.00000   0.99195   0.12665
   5        2PZ        -0.02148   0.36969  -0.56535   0.00000  -0.00000
   6 2   H  1S          0.05325   0.55003  -0.17805   0.00000  -0.00000
                           6
                           V
     Eigenvalues --     0.40426
   1 1   Li 1S         -0.13710
   2        2S         -0.91026
   3        2PX        -0.00000
   4        2PY         0.00000
   5        2PZ        -1.13537
   6 2   H  1S          1.46635
     Density Matrix:
                           1         2         3         4         5
   1 1   Li 1S          2.06467
   2        2S         -0.15617   0.30801
   3        2PX         0.00000   0.00000   0.00000
   4        2PY         0.00000  -0.00000  -0.00000   0.00000
   5        2PZ        -0.24425   0.28806   0.00000  -0.00000   0.27426
   6 2   H  1S         -0.19667   0.43363   0.00000  -0.00000   0.40439
                           6
   6 2   H  1S          0.61074
    Full Mulliken population analysis:
                           1         2         3         4         5
   1 1   Li 1S          2.06467
   2        2S         -0.03766   0.30801
   3        2PX         0.00000   0.00000   0.00000
   4        2PY         0.00000   0.00000   0.00000   0.00000
   5        2PZ         0.00000   0.00000   0.00000   0.00000   0.27426
   6 2   H  1S         -0.04511   0.23249   0.00000   0.00000   0.22144
                           6
   6 2   H  1S          0.61074
     Gross orbital populations:
                           1
   1 1   Li 1S          1.98190
   2        2S          0.50285
   3        2PX         0.00000
   4        2PY         0.00000
   5        2PZ         0.49570
   6 2   H  1S          1.01956
          Condensed to atoms (all electrons):
               1          2
     1  Li   2.571624   0.408818
     2  H    0.408818   0.610740
 Mulliken charges:
               1
     1  Li   0.019558
     2  H   -0.019558
 Sum of Mulliken charges =   0.00000
 Mulliken charges with hydrogens summed into heavy atoms:
               1
     1  Li   0.000000
 Electronic spatial extent (au):  <R**2>=             17.2720
 Charge=              0.0000 electrons
 Dipole moment (field-independent basis, Debye):
    X=             -0.0000    Y=              0.0000    Z=             -4.7897  Tot=              4.7897
 Quadrupole moment (field-independent basis, Debye-Ang):
   XX=             -4.9200   YY=             -4.9200   ZZ=             -8.5882
   XY=              0.0000   XZ=             -0.0000   YZ=              0.0000
 Traceless Quadrupole moment (field-independent basis, Debye-Ang):
   XX=              1.2227   YY=              1.2227   ZZ=             -2.4455
   XY=              0.0000   XZ=             -0.0000   YZ=              0.0000
 Octapole moment (field-independent basis, Debye-Ang**2):
  XXX=             -0.0000  YYY=              0.0000  ZZZ=            -14.9739  XYY=             -0.0000
  XXY=              0.0000  XXZ=             -4.5029  XZZ=             -0.0000  YZZ=              0.0000
  YYZ=             -4.5029  XYZ=              0.0000
 Hexadecapole moment (field-independent basis, Debye-Ang**3):
 XXXX=            -10.8360 YYYY=            -10.8360 ZZZZ=            -32.6753 XXXY=              0.0000
 XXXZ=             -0.0000 YYYX=              0.0000 YYYZ=              0.0000 ZZZX=             -0.0000
 ZZZY=              0.0000 XXYY=             -3.6120 XXZZ=             -7.0785 YYZZ=             -7.0785
 XXYZ=              0.0000 YYXZ=             -0.0000 ZZXY=              0.0000
 N-N= 1.587531632760D+00 E-N=-2.154662089339D+01  KE= 8.217690033977D+00
 Orbital energies and kinetic energies (alpha):
                                 1                 2
   1         O                -1.787190          3.428593
   2         O                -0.150691          0.680252
   3         V                -0.032259          0.368753
   4         V                 0.030624          0.319682
   5         V                 0.030624          0.319682
   6         V                 0.404261          1.211540
 Total kinetic energy from orbitals= 8.217690033977D+00
 Calling FoFJK, ICntrl=      2527 FMM=F ISym2X=0 I1Cent= 0 IOpClX= 0 NMat=1 NMatS=1 NMatT=0.
 -------------------------------------------------------------------
 Center     Atomic                   Forces (Hartrees/Bohr)
 Number     Number              X              Y              Z
 -------------------------------------------------------------------
      1        3           0.000000000   -0.000000000   -0.255337766
      2        1          -0.000000000    0.000000000    0.255337766
 -------------------------------------------------------------------
 Cartesian Forces:  Max     0.255337766 RMS     0.147419328

 GradGradGradGradGradGradGradGradGradGradGradGradGradGradGradGradGradGrad
 Berny optimization.
 Search for a local minimum.
 Step number   1 out of a maximum of    2
 All quantities printed in internal units (Hartrees-Bohrs-Radians)
 Second derivative matrix not updated -- first step.
 The second derivative matrix:
                          X1        Y1        Z1        X2        Y2
           X1           1.00000
           Y1           0.00000   1.00000
           Z1           0.00000   0.00000   0.47688
           X2           0.00000   0.00000   0.00000   1.00000
           Y2           0.00000   0.00000   0.00000   0.00000   1.00000
           Z2           0.00000   0.00000  -0.47688   0.00000   0.00000
                          Z2
           Z2           0.47688
 ITU=  0
     Eigenvalues ---    0.88988
 Quadratic step=3.920D-01 exceeds max=3.000D-01 adjusted using Lamda=-2.696D-01.
 Angle between NR and scaled steps=   0.00 degrees.
 Angle between quadratic step and forces=  15.00 degrees.
 Linear search not attempted -- first point.
 B after Tr=     0.000000    0.000000   -0.055053
         Rot=    1.000000    0.000000    0.000000    0.000000 Ang=   0.00 deg.
 Variable       Old X    -DE/DX   Delta X   Delta X   Delta X     New X
                                 (Linear)    (Quad)   (Total)
    X1        0.00000   0.00000   0.00000   0.00000   0.00000   0.00000
    Y1        0.00000  -0.00000   0.00000   0.00000   0.00000   0.00000
    Z1        0.00000  -0.25534   0.00000  -0.15041  -0.20546  -0.20546
    X2        0.00000  -0.00000   0.00000   0.00000   0.00000   0.00000
    Y2        0.00000   0.00000   0.00000   0.00000   0.00000   0.00000
    Z2        1.88973   0.25534   0.00000   0.26051   0.20546   2.09519
         Item               Value     Threshold  Converged?
 Maximum Force            0.255338     0.000450     NO 
 RMS     Force            0.147419     0.000300     NO 
 Maximum Displacement     0.205460     0.001800     NO 
 RMS     Displacement     0.118622     0.001200     NO 
 Predicted change in Energy=-6.466122D-02
 GradGradGradGradGradGradGradGradGradGradGradGradGradGradGradGradGradGrad

 Unable to Open any file for archive entry.
 1\1\GINC-BHP0004\Force\RBLYP\STO-3G\H1Li1\BWEIGHT\28-Dec-2022\0\\# BLY
 P/sto-3g FORCE nosym pop=full\\MD Step 1\\0,1\Li,0.,0.,0.\H,0.,0.,1.\\
 Version=ES64L-G16RevC.01\HF=-7.8507498\RMSD=2.132e-09\RMSF=1.474e-01\D
 ipole=0.,0.,-1.8844228\Quadrupole=0.9090698,0.9090698,-1.8181396,0.,0.
 ,0.\PG=C*V [C*(H1Li1)]\\@
 The archive entry for this job was punched.


 LAW OF COMPENSATION:
      NO CALCULATION IS EVER A COMPLETE FAILURE; IT 
      CAN ALWAYS SERVE AS A BAD EXAMPLE.

                                           -- ANON
 Job cpu time:       0 days  0 hours  0 minutes  2.2 seconds.
 Elapsed time:       0 days  0 hours  0 minutes  3.1 seconds.
 File lengths (MBytes):  RWF=    272 Int=      0 D2E=      0 Chk=     32 Scr=     32
 Normal termination of Gaussian 16 at Wed Dec 28 17:08:34 2022.
