 Entering Gaussian System, Link 0=g16
 Initial command:
 /software/gaussian/g16-c01/avx2/g16/l1.exe "/gpfs/fs2/scratch/bweight/software/many_molecule_many_mode_NAMD/src/NAMD/TEST_NVT/G16/GS_NEW/Gau-30025.inp" -scrdir="/gpfs/fs2/scratch/bweight/software/many_molecule_many_mode_NAMD/src/NAMD/TEST_NVT/G16/GS_NEW/"
 Entering Link 1 = /software/gaussian/g16-c01/avx2/g16/l1.exe PID=     30026.
  
 Copyright (c) 1988-2019, Gaussian, Inc.  All Rights Reserved.
  
 This is part of the Gaussian(R) 16 program.  It is based on
 the Gaussian(R) 09 system (copyright 2009, Gaussian, Inc.),
 the Gaussian(R) 03 system (copyright 2003, Gaussian, Inc.),
 the Gaussian(R) 98 system (copyright 1998, Gaussian, Inc.),
 the Gaussian(R) 94 system (copyright 1995, Gaussian, Inc.),
 the Gaussian 92(TM) system (copyright 1992, Gaussian, Inc.),
 the Gaussian 90(TM) system (copyright 1990, Gaussian, Inc.),
 the Gaussian 88(TM) system (copyright 1988, Gaussian, Inc.),
 the Gaussian 86(TM) system (copyright 1986, Carnegie Mellon
 University), and the Gaussian 82(TM) system (copyright 1983,
 Carnegie Mellon University). Gaussian is a federally registered
 trademark of Gaussian, Inc.
  
 This software contains proprietary and confidential information,
 including trade secrets, belonging to Gaussian, Inc.
  
 This software is provided under written license and may be
 used, copied, transmitted, or stored only in accord with that
 written license.
  
 The following legend is applicable only to US Government
 contracts under FAR:
  
                    RESTRICTED RIGHTS LEGEND
  
 Use, reproduction and disclosure by the US Government is
 subject to restrictions as set forth in subparagraphs (a)
 and (c) of the Commercial Computer Software - Restricted
 Rights clause in FAR 52.227-19.
  
 Gaussian, Inc.
 340 Quinnipiac St., Bldg. 40, Wallingford CT 06492
  
  
 ---------------------------------------------------------------
 Warning -- This program may not be used in any manner that
 competes with the business of Gaussian, Inc. or will provide
 assistance to any competitor of Gaussian, Inc.  The licensee
 of this program is prohibited from giving any competitor of
 Gaussian, Inc. access to this program.  By using this program,
 the user acknowledges that Gaussian, Inc. is engaged in the
 business of creating and licensing software in the field of
 computational chemistry and represents and warrants to the
 licensee that it is not a competitor of Gaussian, Inc. and that
 it will not use this program in any manner prohibited above.
 ---------------------------------------------------------------
  

 Cite this work as:
 Gaussian 16, Revision C.01,
 M. J. Frisch, G. W. Trucks, H. B. Schlegel, G. E. Scuseria, 
 M. A. Robb, J. R. Cheeseman, G. Scalmani, V. Barone, 
 G. A. Petersson, H. Nakatsuji, X. Li, M. Caricato, A. V. Marenich, 
 J. Bloino, B. G. Janesko, R. Gomperts, B. Mennucci, H. P. Hratchian, 
 J. V. Ortiz, A. F. Izmaylov, J. L. Sonnenberg, D. Williams-Young, 
 F. Ding, F. Lipparini, F. Egidi, J. Goings, B. Peng, A. Petrone, 
 T. Henderson, D. Ranasinghe, V. G. Zakrzewski, J. Gao, N. Rega, 
 G. Zheng, W. Liang, M. Hada, M. Ehara, K. Toyota, R. Fukuda, 
 J. Hasegawa, M. Ishida, T. Nakajima, Y. Honda, O. Kitao, H. Nakai, 
 T. Vreven, K. Throssell, J. A. Montgomery, Jr., J. E. Peralta, 
 F. Ogliaro, M. J. Bearpark, J. J. Heyd, E. N. Brothers, K. N. Kudin, 
 V. N. Staroverov, T. A. Keith, R. Kobayashi, J. Normand, 
 K. Raghavachari, A. P. Rendell, J. C. Burant, S. S. Iyengar, 
 J. Tomasi, M. Cossi, J. M. Millam, M. Klene, C. Adamo, R. Cammi, 
 J. W. Ochterski, R. L. Martin, K. Morokuma, O. Farkas, 
 J. B. Foresman, and D. J. Fox, Gaussian, Inc., Wallingford CT, 2019.
 
 ******************************************
 Gaussian 16:  ES64L-G16RevC.01  3-Jul-2019
                 9-Jan-2023 
 ******************************************
 %oldchk=../GS_OLD/geometry.chk
 %chk=geometry.chk
 %nprocshared=24
 Will use up to   24 processors via shared memory.
 %mem=5GB
 Copying data from "../GS_OLD/geometry.chk" to current chk file "geometry.chk"
 IOpt=  2 FromEx=T IUOpen= 4 IOptOp= 5 NList=   0 IFRang= 0 IUIn= 4 IUOut= 2.
 -------------------------------------------------------
 # WB97XD/6-311G SCF=XQC FORCE nosym pop=full guess=read
 -------------------------------------------------------
 1/10=7,30=1,38=1/1,3;
 2/12=2,15=1,17=6,18=5,40=1/2;
 3/5=4,6=6,11=2,25=1,30=1,71=1,74=-58,116=-2/1,2,3;
 4/5=1/1;
 5/5=2,8=3,13=1,38=6/2,8;
 6/7=3,28=1/1;
 7/29=1,30=1/1,2,3,16;
 1/10=7,30=1/3;
 99//99;
 -----------
 MD Step 335
 -----------
 Symbolic Z-matrix:
 Charge =  0 Multiplicity = 1
 C                    -0.35687  -0.61614   0.00403 
 H                     0.31585  -1.33148  -0.00112 
 H                    -1.32371  -0.4257   -0.02642 
 C                     0.31875   0.5579   -0.00152 
 H                    -0.09925   1.69933   0.02781 
 H                     1.56898   0.75644  -0.02528 
 

 GradGradGradGradGradGradGradGradGradGradGradGradGradGradGradGradGradGrad
 Berny optimization.
 Initialization pass.
 Trust Radius=3.00D-01 FncErr=1.00D-07 GrdErr=1.00D-07 EigMax=2.50D+02 EigMin=1.00D-04
 Number of steps in this run=      2 maximum allowed number of steps=      2.
 GradGradGradGradGradGradGradGradGradGradGradGradGradGradGradGradGradGrad

                          Input orientation:                          
 ---------------------------------------------------------------------
 Center     Atomic      Atomic             Coordinates (Angstroms)
 Number     Number       Type             X           Y           Z
 ---------------------------------------------------------------------
      1          6           0       -0.356869   -0.616138    0.004032
      2          1           0        0.315853   -1.331477   -0.001124
      3          1           0       -1.323706   -0.425703   -0.026423
      4          6           0        0.318753    0.557895   -0.001519
      5          1           0       -0.099249    1.699335    0.027807
      6          1           0        1.568982    0.756442   -0.025279
 ---------------------------------------------------------------------
                    Distance matrix (angstroms):
                    1          2          3          4          5
     1  C    0.000000
     2  H    0.981984   0.000000
     3  H    0.985884   1.873291   0.000000
     4  C    1.354566   1.889375   1.914617   0.000000
     5  H    2.329881   3.059243   2.453166   1.215923   0.000000
     6  H    2.365108   2.435226   3.124918   1.266119   1.916992
                    6
     6  H    0.000000
 Symmetry turned off by external request.
 Stoichiometry    C2H4
 Framework group  C1[X(C2H4)]
 Deg. of freedom    12
 Full point group                 C1      NOp   1
 Rotational constants (GHZ):         139.5906256          29.3215844          24.2365850
 Standard basis: 6-311G (5D, 7F)
    38 basis functions,    72 primitive gaussians,    38 cartesian basis functions
     8 alpha electrons        8 beta electrons
       nuclear repulsion energy        33.0145045775 Hartrees.
 NAtoms=    6 NActive=    6 NUniq=    6 SFac= 1.00D+00 NAtFMM=   60 NAOKFM=F Big=F
 Integral buffers will be    131072 words long.
 Raffenetti 2 integral format.
 Two-electron integral symmetry is turned off.
 Nuclear repulsion after empirical dispersion term =       33.0136079843 Hartrees.
 One-electron integrals computed using PRISM.
 NBasis=    38 RedAO= T EigKep=  6.43D-03  NBF=    38
 NBsUse=    38 1.00D-06 EigRej= -1.00D+00 NBFU=    38
 Initial guess from the checkpoint file:  "geometry.chk"
 B after Tr=     0.000140   -0.000519    0.000076
         Rot=    1.000000   -0.000028   -0.000067    0.000128 Ang=  -0.02 deg.
 Keep R1 ints in memory in canonical form, NReq=21321136.
 Requested convergence on RMS density matrix=1.00D-08 within  32 cycles.
 Requested convergence on MAX density matrix=1.00D-06.
 Requested convergence on             energy=1.00D-06.
 No special actions if energy rises.
 SCF Done:  E(RwB97XD) =  -78.4966015944     A.U. after    8 cycles
            NFock=  8  Conv=0.58D-08     -V/T= 2.0040
 QCSCF skips out because SCF is already converged.

 **********************************************************************

            Population analysis using the SCF Density.

 **********************************************************************

 Alpha  occ. eigenvalues --  -10.31658 -10.27499  -0.87710  -0.65955  -0.59786
 Alpha  occ. eigenvalues --   -0.49142  -0.41925  -0.35856
 Alpha virt. eigenvalues --    0.07476   0.12560   0.15928   0.17126   0.22607
 Alpha virt. eigenvalues --    0.32708   0.39718   0.42431   0.43042   0.49212
 Alpha virt. eigenvalues --    0.51307   0.58662   0.65342   0.72144   0.74639
 Alpha virt. eigenvalues --    0.78941   0.85119   0.92946   2.20740   2.31716
 Alpha virt. eigenvalues --    2.37877   2.46150   2.66310   2.81532   2.83852
 Alpha virt. eigenvalues --    2.91248   3.10647   3.32038  23.34931  23.70875
     Molecular Orbital Coefficients:
                           1         2         3         4         5
                           O         O         O         O         O
     Eigenvalues --   -10.31658 -10.27499  -0.87710  -0.65955  -0.59786
   1 1   C  1S          0.00520   0.56314  -0.09586   0.05773   0.00184
   2        2S          0.00447   0.46364  -0.15158   0.09203   0.00296
   3        2PX         0.00016   0.00015   0.02418   0.03310   0.17774
   4        2PY         0.00027   0.00026   0.03983   0.06442  -0.09392
   5        2PZ         0.00000  -0.00003  -0.00135   0.00183   0.00234
   6        3S         -0.00060   0.01555   0.40591  -0.24997  -0.00796
   7        3PX        -0.00064   0.00031   0.03877   0.05079   0.27177
   8        3PY        -0.00112   0.00049   0.06393   0.09768  -0.14363
   9        3PZ        -0.00000  -0.00002  -0.00224   0.00275   0.00368
  10        4S          0.00498  -0.01485   0.18928  -0.18064  -0.00902
  11        4PX         0.00169  -0.00136   0.00104   0.02020   0.13091
  12        4PY         0.00295  -0.00227   0.00353   0.04091  -0.07024
  13        4PZ        -0.00000   0.00006  -0.00047   0.00102   0.00190
  14 2   H  1S          0.00007  -0.00021   0.07647  -0.08792   0.14306
  15        2S         -0.00038   0.00004   0.07204  -0.10010   0.14865
  16        3S          0.00079   0.00237  -0.00345  -0.01468   0.03854
  17 3   H  1S          0.00005  -0.00019   0.07445  -0.08491  -0.14968
  18        2S         -0.00036   0.00003   0.07035  -0.09840  -0.15731
  19        3S          0.00077   0.00231  -0.00437  -0.01470  -0.04101
  20 4   C  1S          0.56360  -0.00538  -0.07672  -0.07860  -0.00149
  21        2S          0.46373  -0.00421  -0.12046  -0.12624  -0.00233
  22        2PX         0.00008  -0.00018  -0.03260   0.02808   0.07038
  23        2PY         0.00011  -0.00032  -0.05511   0.06145  -0.04412
  24        2PZ         0.00001   0.00000   0.00016   0.00074  -0.00012
  25        3S          0.01352  -0.00098   0.32154   0.34686   0.00601
  26        3PX        -0.00043   0.00067  -0.03864   0.04767   0.10951
  27        3PY        -0.00066   0.00120  -0.06512   0.10191  -0.06735
  28        3PZ         0.00000  -0.00001   0.00029   0.00116  -0.00038
  29        4S         -0.01205   0.00606   0.17707   0.29438   0.00595
  30        4PX         0.00124  -0.00160  -0.00932   0.02903   0.06529
  31        4PY         0.00205  -0.00280  -0.01821   0.05532  -0.04023
  32        4PZ        -0.00002   0.00001  -0.00012   0.00039  -0.00047
  33 5   H  1S          0.00009  -0.00004   0.03133   0.09580  -0.03905
  34        2S         -0.00004  -0.00033   0.03505   0.12291  -0.04536
  35        3S          0.00134   0.00030  -0.00024   0.02011  -0.01334
  36 6   H  1S          0.00014  -0.00003   0.02846   0.08361   0.03860
  37        2S         -0.00004  -0.00030   0.03227   0.11017   0.04669
  38        3S          0.00119   0.00024  -0.00034   0.01795   0.01461
                           6         7         8         9        10
                           O         O         O         V         V
     Eigenvalues --    -0.49142  -0.41925  -0.35856   0.07476   0.12560
   1 1   C  1S          0.00653   0.00087  -0.00126   0.00105  -0.00726
   2        2S          0.01039   0.00142  -0.00206   0.00174  -0.01100
   3        2PX         0.08943  -0.07455  -0.00725   0.00235  -0.02739
   4        2PY         0.17225   0.03968   0.00165   0.00130  -0.05416
   5        2PZ         0.00202  -0.00959   0.17903  -0.18864  -0.00085
   6        3S         -0.02191  -0.00428   0.00622  -0.00503   0.01067
   7        3PX         0.13007  -0.11156  -0.01062   0.00507  -0.03983
   8        3PY         0.25121   0.05950   0.00231   0.00150  -0.08535
   9        3PZ         0.00305  -0.01546   0.29535  -0.28417  -0.00125
  10        4S         -0.07885  -0.00292   0.00241  -0.00995   0.61399
  11        4PX         0.06460  -0.10399  -0.01040   0.00694  -0.06789
  12        4PY         0.12805   0.05816   0.00003   0.00809  -0.20065
  13        4PZ         0.00203  -0.01194   0.26808  -0.67202  -0.00703
  14 2   H  1S         -0.08271  -0.07646  -0.00514   0.00017  -0.01491
  15        2S         -0.11397  -0.09449  -0.00648   0.00004  -0.06458
  16        3S         -0.04792  -0.03236  -0.00300  -0.00219  -0.37724
  17 3   H  1S         -0.07350   0.07687   0.00420   0.00532  -0.00463
  18        2S         -0.10293   0.09580   0.00830   0.00960  -0.02455
  19        3S         -0.04392   0.03493   0.00358   0.00860  -0.23665
  20 4   C  1S         -0.01491  -0.00098   0.00060   0.00034  -0.05595
  21        2S         -0.02379  -0.00160   0.00096   0.00055  -0.09017
  22        2PX        -0.08999   0.14738   0.01027   0.00621   0.07211
  23        2PY        -0.16194  -0.08155  -0.00422  -0.00429   0.07319
  24        2PZ         0.00110  -0.01178   0.17892   0.19443   0.00041
  25        3S          0.07581   0.00343  -0.00293  -0.00090   0.21259
  26        3PX        -0.13697   0.24004   0.01603   0.00932   0.09024
  27        3PY        -0.24521  -0.13164  -0.00709  -0.00556   0.08337
  28        3PZ         0.00166  -0.01872   0.28001   0.27979   0.00048
  29        4S         -0.00341   0.01449   0.00205  -0.01680   1.39021
  30        4PX        -0.07936   0.20147   0.01400   0.02643   0.38566
  31        4PY        -0.14061  -0.10695  -0.00778  -0.01359   0.47304
  32        4PZ         0.00071  -0.01463   0.26832   0.68344   0.00387
  33 5   H  1S         -0.07896  -0.13341  -0.00614   0.00329  -0.03358
  34        2S         -0.11493  -0.22037  -0.01252   0.01042  -0.07764
  35        3S         -0.04684  -0.11210  -0.00702   0.01950  -0.91782
  36 6   H  1S         -0.07077   0.14042   0.00742  -0.00208  -0.04938
  37        2S         -0.10409   0.23460   0.01386  -0.00616  -0.10547
  38        3S         -0.04401   0.12367   0.00893  -0.01345  -1.10470
                          11        12        13        14        15
                           V         V         V         V         V
     Eigenvalues --     0.15928   0.17126   0.22607   0.32708   0.39718
   1 1   C  1S          0.00935  -0.05485  -0.00007   0.00366   0.00114
   2        2S          0.01517  -0.08947  -0.00011   0.00261   0.00216
   3        2PX         0.05794  -0.01114   0.11018  -0.03361  -0.00670
   4        2PY        -0.01812  -0.03974  -0.06270  -0.05981  -0.00221
   5        2PZ         0.00488  -0.00179   0.00020  -0.00257   0.00402
   6        3S         -0.03358   0.19915  -0.00003   0.04529  -0.01442
   7        3PX         0.08533   0.00685   0.10470  -0.04209   0.06095
   8        3PY        -0.03321  -0.01734  -0.06047  -0.07280  -0.04020
   9        3PZ         0.00644  -0.00286   0.00098  -0.00664   0.00980
  10        4S         -0.36485   2.06554   0.03557  -1.07078   0.12454
  11        4PX         0.56420  -0.01855   1.41610  -1.02340   0.53070
  12        4PY        -0.23822  -0.22608  -0.78150  -1.81700  -0.27438
  13        4PZ         0.03488  -0.01363   0.00438  -0.02267   0.02126
  14 2   H  1S         -0.01692  -0.02514   0.04018  -0.09394  -0.04478
  15        2S         -0.11923  -0.02583  -0.06225  -0.69024  -0.46820
  16        3S         -0.76204  -1.49331  -1.93266  -0.15679  -0.39513
  17 3   H  1S          0.02741  -0.01961  -0.04099  -0.09362   0.04470
  18        2S          0.13823   0.00562   0.05348  -0.69212   0.44335
  19        3S          1.21570  -1.17572   1.93723  -0.16384   0.33284
  20 4   C  1S          0.00265   0.02043  -0.00120  -0.02322  -0.00458
  21        2S          0.00428   0.03314  -0.00197  -0.03968  -0.00769
  22        2PX         0.13919   0.00496  -0.08746  -0.04325   0.06243
  23        2PY        -0.08688  -0.03619   0.05120  -0.07533  -0.02786
  24        2PZ        -0.00647  -0.00128   0.00518   0.00082  -0.00163
  25        3S         -0.01056  -0.06433   0.00389   0.10672   0.02063
  26        3PX         0.19568   0.01155  -0.11957  -0.09281   0.12644
  27        3PY        -0.11853  -0.04064   0.06892  -0.15656  -0.05773
  28        3PZ        -0.00879  -0.00219   0.00850  -0.00001  -0.00091
  29        4S         -0.11364  -0.67601   0.05612   1.95628  -0.06126
  30        4PX         0.58593   0.12697  -0.83729  -0.68704   0.35690
  31        4PY        -0.43276  -0.00317   0.53332  -1.16996  -0.12548
  32        4PZ        -0.03657  -0.00407   0.02380   0.02086  -0.02805
  33 5   H  1S          0.03722   0.03408  -0.02345  -0.01394   0.08285
  34        2S          0.05605   0.04459  -0.12284  -0.13904   0.84414
  35        3S          1.11399   0.58118  -1.06998   0.44814  -0.91460
  36 6   H  1S         -0.04427   0.02528   0.02841  -0.00865  -0.11145
  37        2S         -0.06743   0.03330   0.13377  -0.09312  -1.15956
  38        3S         -0.94431   0.25751   0.96642   0.37360   1.17236
                          16        17        18        19        20
                           V         V         V         V         V
     Eigenvalues --     0.42431   0.43042   0.49212   0.51307   0.58662
   1 1   C  1S         -0.00929  -0.02651   0.00126  -0.02449   0.00001
   2        2S         -0.01239  -0.04896   0.00197  -0.03613   0.00009
   3        2PX         0.01361   0.06919   0.00603  -0.02440   0.00157
   4        2PY         0.02602   0.12585   0.00344  -0.03993  -0.00030
   5        2PZ         0.00155   0.00308  -0.14522  -0.00496  -0.19338
   6        3S         -0.11639   0.21714   0.00150  -0.16224  -0.00490
   7        3PX         0.03586   0.22245   0.02398  -0.18319   0.00788
   8        3PY         0.08822   0.38606   0.01968  -0.32765  -0.00529
   9        3PZ         0.00569   0.00944  -0.60776  -0.02530  -0.69967
  10        4S          4.01422   2.36163  -0.03160   2.89941   0.04673
  11        4PX         0.89266   0.46608  -0.05538   0.95743   0.04603
  12        4PY         1.57633   0.69135  -0.00869   1.55994   0.00388
  13        4PZ        -0.03668  -0.01692   0.65295  -0.00846   1.25909
  14 2   H  1S         -0.00573  -0.02159   0.00215  -0.06071  -0.00152
  15        2S         -0.44887  -0.37772   0.04296  -0.98609  -0.03502
  16        3S          0.33759   0.48454  -0.00197   0.33288   0.01079
  17 3   H  1S         -0.02130  -0.01289   0.00224  -0.05967  -0.00062
  18        2S         -0.54334  -0.28279   0.01912  -0.92486   0.00375
  19        3S          0.31175   0.52231   0.01121   0.41983   0.01194
  20 4   C  1S          0.00023   0.02912  -0.00159   0.04839   0.00116
  21        2S         -0.00037   0.04347  -0.00311   0.09100   0.00224
  22        2PX         0.03000  -0.02334  -0.00473   0.03504   0.00670
  23        2PY         0.06391  -0.04948   0.00043   0.05286  -0.00236
  24        2PZ         0.00275   0.00115  -0.16066  -0.00949   0.18727
  25        3S          0.01316   0.08923   0.02033  -0.46404  -0.01172
  26        3PX         0.02841  -0.14687  -0.02143   0.16716   0.02833
  27        3PY         0.08473  -0.27349  -0.00531   0.27429  -0.00966
  28        3PZ         0.00928   0.00603  -0.65273  -0.03795   0.65621
  29        4S         -2.40685  -2.21419   0.02541  -2.21231  -0.02754
  30        4PX         1.46795   1.16174   0.06931   0.25169  -0.05411
  31        4PY         2.81716   1.89382   0.04024   0.33566   0.04723
  32        4PZ        -0.00013  -0.01486   0.72591   0.04872  -1.20932
  33 5   H  1S         -0.06711   0.08867  -0.00091   0.03931   0.00101
  34        2S         -1.13841   0.62094  -0.01424   0.52848   0.00395
  35        3S         -0.01197  -0.84269  -0.02055  -0.35491  -0.03001
  36 6   H  1S         -0.04875   0.07237  -0.00149   0.03067   0.00027
  37        2S         -0.88207   0.45817  -0.04317   0.42059   0.00848
  38        3S         -0.07501  -0.73326   0.01619  -0.30370   0.01321
                          21        22        23        24        25
                           V         V         V         V         V
     Eigenvalues --     0.65342   0.72144   0.74639   0.78941   0.85119
   1 1   C  1S          0.00169  -0.00225   0.02716   0.08122   0.00256
   2        2S          0.00339  -0.00458   0.05506   0.17379   0.00545
   3        2PX        -0.03647  -0.22222  -0.06795   0.08706   0.08609
   4        2PY         0.01630   0.12969  -0.11001   0.16162  -0.04308
   5        2PZ        -0.00370  -0.00309   0.00008   0.00280   0.00088
   6        3S         -0.01911   0.02825  -0.22736  -1.42912  -0.05550
   7        3PX        -0.22529  -0.95872  -0.30111   0.30750   0.36621
   8        3PY         0.11052   0.55987  -0.49237   0.57198  -0.17729
   9        3PZ        -0.01363  -0.01326   0.00112   0.00970   0.00756
  10        4S         -0.00688  -0.03221  -0.25826   1.77392   0.32053
  11        4PX         0.21856   3.07100   0.51794  -0.68052   4.74708
  12        4PY        -0.12899  -1.72029   0.19209  -1.15498  -2.49586
  13        4PZ         0.04391   0.02954   0.00746  -0.02408   0.03737
  14 2   H  1S          0.00814   0.04452  -0.00619   0.03982  -0.05661
  15        2S         -0.00988   0.04364   0.05626   0.26075  -2.49905
  16        3S         -0.57144  -2.12218   0.07478  -1.30263  -1.25224
  17 3   H  1S         -0.00496  -0.04394  -0.00321   0.03627   0.06336
  18        2S          0.01261  -0.02722   0.26621   0.20916   2.48581
  19        3S          0.54392   2.12856   0.32102  -1.27693   1.22621
  20 4   C  1S          0.00104  -0.00258   0.05860   0.06443  -0.00408
  21        2S          0.00239  -0.00550   0.12545   0.13744  -0.00844
  22        2PX        -0.20880   0.07251  -0.11065   0.03076  -0.04438
  23        2PY         0.11502  -0.03211  -0.20921   0.04579   0.03452
  24        2PZ         0.00808  -0.00317  -0.00059  -0.00021  -0.00334
  25        3S         -0.02824   0.04552  -1.13443  -1.03421   0.06676
  26        3PX        -0.87081   0.24229  -0.42618   0.18271   0.01643
  27        3PY         0.48424  -0.10069  -0.81483   0.29983   0.05633
  28        3PZ         0.03187  -0.01383  -0.00233  -0.00016  -0.01412
  29        4S          0.04968  -0.07445   2.36991   1.93586  -0.29347
  30        4PX         1.89867  -1.39361   0.49529  -0.39192  -2.43778
  31        4PY        -1.09559   0.75151   1.36716  -0.69488   1.51735
  32        4PZ        -0.07652   0.03351   0.00919   0.00460   0.04471
  33 5   H  1S         -0.03478   0.02723   0.03697   0.01876  -0.01470
  34        2S         -0.03277  -0.19792  -0.14113  -0.02872  -0.89402
  35        3S          1.19260  -0.55289  -1.07994  -0.01967  -0.37034
  36 6   H  1S          0.03615  -0.03137   0.03452   0.01758   0.01481
  37        2S         -0.03193   0.21419  -0.10260  -0.06361   0.86151
  38        3S         -1.15820   0.60517  -0.81714   0.02843   0.39528
                          26        27        28        29        30
                           V         V         V         V         V
     Eigenvalues --     0.92946   2.20740   2.31716   2.37877   2.46150
   1 1   C  1S          0.10383  -0.02076   0.02121   0.00074  -0.00020
   2        2S          0.21675  -0.01700   0.03199   0.00135  -0.00065
   3        2PX        -0.08226   0.02733   0.05164   0.23551   0.55374
   4        2PY        -0.13648   0.03959   0.09474  -0.11841  -0.30380
   5        2PZ         0.00121  -0.00887   0.00693   0.00267   0.01136
   6        3S         -1.69115  -0.17692  -0.01731  -0.00306   0.00492
   7        3PX        -0.19826  -0.08646  -0.11076  -0.20104  -0.69658
   8        3PY        -0.31944  -0.14173  -0.17482   0.08712   0.38456
   9        3PZ         0.00034   0.00802  -0.00639  -0.00386  -0.01322
  10        4S          5.60845  -0.50516   0.87895   0.03675  -0.05633
  11        4PX         0.99797   0.02042   0.12526   0.10515  -1.65188
  12        4PY         1.96961   0.08547   0.35157  -0.02448   0.87436
  13        4PZ        -0.01521   0.00886  -0.00564  -0.00258  -0.01611
  14 2   H  1S         -0.00524  -0.83138   0.72238  -0.22459  -0.91467
  15        2S         -0.03875   1.19496  -1.05663   0.30014   2.17906
  16        3S         -0.29250  -0.26289   0.40025  -0.10310  -0.10589
  17 3   H  1S         -0.00489  -0.81956   0.71735   0.27456   0.91335
  18        2S         -0.16671   1.15980  -1.10973  -0.37169  -2.17564
  19        3S         -0.32881  -0.26458   0.38130   0.14842   0.08777
  20 4   C  1S         -0.08822   0.00377  -0.00660   0.00178   0.00005
  21        2S         -0.18176   0.01296   0.00324   0.00326  -0.00058
  22        2PX        -0.08564   0.15717   0.04416   0.38860  -0.27657
  23        2PY        -0.15163   0.33057   0.17820  -0.21031   0.15393
  24        2PZ         0.00117   0.00488   0.00033  -0.01514   0.00464
  25        3S          1.40107  -0.12887  -0.08455  -0.00928   0.00412
  26        3PX        -0.16821  -0.24320  -0.13072  -0.60410   0.38560
  27        3PY        -0.30229  -0.48307  -0.36045   0.30382  -0.21609
  28        3PZ         0.00282  -0.00500  -0.00081   0.02197  -0.00489
  29        4S         -5.22137   0.20648  -0.75315  -0.02966   0.04710
  30        4PX         1.02916   0.02298   0.16285   0.13570   0.61127
  31        4PY         1.64267   0.02642   0.20144  -0.03926  -0.39558
  32        4PZ        -0.01291  -0.00185  -0.00153  -0.00465  -0.00346
  33 5   H  1S         -0.01788  -0.67872  -0.89931   0.88063  -0.22412
  34        2S          0.33064   0.98117   1.35054  -1.30292   0.61398
  35        3S          0.08154  -0.39821  -0.53930   0.73846  -0.17278
  36 6   H  1S         -0.01984  -0.60379  -0.73228  -1.07656   0.29841
  37        2S          0.28608   0.85290   1.05534   1.55560  -0.69930
  38        3S          0.04631  -0.33793  -0.41697  -0.85647   0.22624
                          31        32        33        34        35
                           V         V         V         V         V
     Eigenvalues --     2.66310   2.81532   2.83852   2.91248   3.10647
   1 1   C  1S          0.00056   0.00071  -0.01622   0.00031  -0.01476
   2        2S          0.00109   0.00116  -0.03772   0.00008  -0.04052
   3        2PX         0.01103   0.04179  -0.58472  -0.43665   0.38737
   4        2PY         0.00374  -0.00310  -1.00714   0.40527   0.55494
   5        2PZ        -0.89670  -0.96607  -0.02411  -0.04180   0.00433
   6        3S         -0.00732  -0.00507   0.23948   0.00266   0.28998
   7        3PX        -0.01454  -0.05150   0.90296   0.56305  -0.30864
   8        3PY        -0.00708   0.00108   1.56122  -0.51843  -0.36925
   9        3PZ         0.90672   1.17006   0.02881   0.05462  -0.00809
  10        4S          0.01494   0.01907  -0.81719   0.02495  -0.61514
  11        4PX        -0.02321   0.04773  -0.66158  -0.50369   0.15030
  12        4PY         0.01832  -0.00930  -1.19476   0.41194   0.00343
  13        4PZ        -0.32090  -0.62773  -0.01607  -0.04141   0.00715
  14 2   H  1S          0.00372   0.01609  -0.02611  -0.18829  -0.13385
  15        2S          0.00784  -0.01991   0.14250   0.14927   0.08871
  16        3S          0.01147  -0.02342  -0.37108   0.48603  -0.12005
  17 3   H  1S          0.00725   0.00698  -0.01584   0.17135  -0.20261
  18        2S         -0.01727  -0.00604   0.15630  -0.15639   0.18780
  19        3S         -0.01777   0.03063  -0.39272  -0.42435   0.00338
  20 4   C  1S         -0.00024  -0.00033   0.01995   0.00003   0.00155
  21        2S         -0.00063  -0.00093   0.05822  -0.00315  -0.00479
  22        2PX        -0.01600   0.05409  -0.38251  -0.96169  -0.53383
  23        2PY         0.01286  -0.02406  -0.45715   0.51187  -1.04591
  24        2PZ        -0.95081   0.90978   0.01132   0.05644  -0.00371
  25        3S          0.00458   0.00691  -0.48563   0.03922   0.07348
  26        3PX         0.01553  -0.06404   0.71648   1.07492   0.63835
  27        3PY        -0.01912   0.01893   1.00966  -0.62649   1.25116
  28        3PZ         0.97779  -1.11614  -0.01710  -0.06892   0.00549
  29        4S         -0.00720  -0.01386   1.05437  -0.06475  -0.11367
  30        4PX         0.00809   0.03362  -0.69895  -0.71450  -0.48551
  31        4PY        -0.00097  -0.00241  -1.03375   0.47275  -0.91240
  32        4PZ        -0.35832   0.60733   0.01210   0.04781  -0.00461
  33 5   H  1S         -0.00397  -0.01036  -0.23648   0.49464  -0.32662
  34        2S          0.00922   0.01045   0.22990  -0.53847   0.29289
  35        3S          0.00463  -0.00038   0.17835  -0.12124   0.19337
  36 6   H  1S          0.00556   0.02001  -0.29441  -0.46808  -0.22707
  37        2S         -0.00968  -0.02075   0.29821   0.50348   0.19625
  38        3S         -0.00294  -0.00201   0.19789   0.09516   0.18427
                          36        37        38
                           V         V         V
     Eigenvalues --     3.32038  23.34931  23.70875
   1 1   C  1S          0.00139  -1.22986  -1.61197
   2        2S          0.00296   1.31089   1.74266
   3        2PX         0.93651  -0.00787   0.01209
   4        2PY        -0.51323  -0.01394   0.01981
   5        2PZ         0.01295  -0.00034  -0.00040
   6        3S         -0.02170  -0.25655  -0.43451
   7        3PX        -1.45206   0.02965  -0.05271
   8        3PY         0.77126   0.05253  -0.08813
   9        3PZ        -0.01913   0.00099   0.00125
  10        4S          0.07685   0.21026   0.78575
  11        4PX         2.46783  -0.04040   0.13019
  12        4PY        -1.30683  -0.07324   0.22155
  13        4PZ         0.02744  -0.00190  -0.00272
  14 2   H  1S          0.78451   0.01965   0.03440
  15        2S         -1.13554   0.00560  -0.02953
  16        3S         -0.84798  -0.10161  -0.05636
  17 3   H  1S         -0.77764   0.01997   0.03160
  18        2S          1.13141   0.00562  -0.02761
  19        3S          0.87734  -0.09933  -0.05388
  20 4   C  1S         -0.00057  -1.60724   1.23419
  21        2S         -0.00174   1.71557  -1.33608
  22        2PX        -0.47028   0.00290   0.01473
  23        2PY         0.31943   0.00645   0.02576
  24        2PZ         0.00709   0.00005  -0.00012
  25        3S          0.01509  -0.34339   0.34043
  26        3PX         0.68689  -0.01077  -0.05713
  27        3PY        -0.48039  -0.02181  -0.10037
  28        3PZ        -0.01021  -0.00011   0.00051
  29        4S         -0.04766   0.34455  -0.67560
  30        4PX        -1.13506  -0.00129   0.12460
  31        4PY         0.76095   0.00148   0.21589
  32        4PZ         0.01441   0.00060  -0.00113
  33 5   H  1S          0.20163  -0.00074   0.00612
  34        2S         -0.29280   0.01666   0.00749
  35        3S         -0.34016  -0.07116   0.02503
  36 6   H  1S         -0.14870  -0.00551   0.00802
  37        2S          0.23914   0.01728   0.00585
  38        3S          0.30866  -0.06347   0.02400
     Density Matrix:
                           1         2         3         4         5
   1 1   C  1S          0.65944
   2        2S          0.56208   0.49311
   3        2PX         0.00107   0.00164   0.09376
   4        2PY         0.00206   0.00315  -0.00233   0.09161
   5        2PZ         0.00000   0.00001   0.00008   0.00021   0.06432
   6        3S         -0.08952  -0.15520  -0.00312  -0.00623   0.00017
   7        3PX         0.00131   0.00192   0.14190  -0.00550   0.00021
   8        3PY         0.00242   0.00357  -0.00548   0.13593   0.00022
   9        3PZ         0.00000  -0.00001  -0.00005   0.00028   0.10610
  10        4S         -0.07489  -0.10606  -0.01972  -0.03389  -0.00062
  11        4PX         0.00179   0.00402   0.07514  -0.00794  -0.00078
  12        4PY         0.00304   0.00679  -0.00786   0.06748  -0.00078
  13        4PZ        -0.00039  -0.00070  -0.00102   0.00037   0.09624
  14 2   H  1S         -0.02572  -0.04063   0.04541  -0.06669  -0.00057
  15        2S         -0.02642  -0.04196   0.04350  -0.08187  -0.00084
  16        3S          0.00111  -0.00030   0.00886  -0.02849  -0.00051
  17 3   H  1S         -0.02568  -0.04059  -0.07990   0.00390  -0.00148
  18        2S         -0.02660  -0.04225  -0.09185  -0.00535  -0.00057
  19        3S          0.00108  -0.00030  -0.02888  -0.00688   0.00020
  20 4   C  1S          0.00524   0.00852  -0.01180  -0.02087   0.00009
  21        2S          0.00828   0.01301  -0.01890  -0.03349   0.00013
  22        2PX         0.00861   0.01381  -0.01292  -0.03147   0.00101
  23        2PY         0.01489   0.02388  -0.03103  -0.05046  -0.00043
  24        2PZ        -0.00040  -0.00066  -0.00063   0.00016   0.06430
  25        3S         -0.02154  -0.03279   0.05374   0.09556  -0.00038
  26        3PX         0.01266   0.01953  -0.02030  -0.04559   0.00137
  27        3PY         0.02193   0.03377  -0.04447  -0.07435  -0.00077
  28        3PZ        -0.00065  -0.00106  -0.00102   0.00025   0.10063
  29        4S          0.00674   0.00601   0.02736   0.05090   0.00107
  30        4PX         0.00286   0.00594  -0.01976  -0.02057   0.00126
  31        4PY         0.00460   0.00970  -0.02061  -0.04372  -0.00124
  32        4PZ        -0.00062  -0.00102  -0.00173   0.00010   0.09636
  33 5   H  1S          0.00362   0.00587  -0.00017  -0.01564   0.00013
  34        2S          0.00508   0.00846   0.00619  -0.02998  -0.00058
  35        3S          0.00188   0.00272   0.00502  -0.01998  -0.00054
  36 6   H  1S          0.00361   0.00587  -0.01307  -0.00742   0.00009
  37        2S          0.00538   0.00894  -0.02834  -0.00920   0.00058
  38        3S          0.00209   0.00312  -0.02008  -0.00578   0.00078
                           6         7         8         9        10
   6        3S          0.45618
   7        3PX        -0.00312   0.21484
   8        3PY        -0.00612  -0.01117   0.20183
   9        3PZ         0.00042   0.00007   0.00025   0.17502
  10        4S          0.24716  -0.02851  -0.04848  -0.00087   0.15004
  11        4PX        -0.01345   0.11352  -0.01350  -0.00146  -0.01884
  12        4PY        -0.02265  -0.01342   0.09987  -0.00131  -0.03262
  13        4PZ         0.00243  -0.00140   0.00043   0.15876   0.00046
  14 2   H  1S          0.10796   0.07041  -0.09917  -0.00095   0.07161
  15        2S          0.11188   0.06779  -0.12158  -0.00139   0.07924
  16        3S          0.00634   0.01401  -0.04232  -0.00085   0.01097
  17 3   H  1S          0.10788  -0.12057   0.00817  -0.00225   0.07273
  18        2S          0.11261  -0.13837  -0.00531  -0.00070   0.08073
  19        3S          0.00619  -0.04342  -0.00954   0.00040   0.01108
  20 4   C  1S         -0.02314  -0.01914  -0.03361   0.00019   0.00752
  21        2S         -0.03426  -0.02988  -0.05257   0.00030   0.00856
  22        2PX        -0.03882  -0.01793  -0.04653   0.00178  -0.01037
  23        2PY        -0.06703  -0.04585  -0.07346  -0.00070  -0.01626
  24        2PZ         0.00204  -0.00086   0.00018   0.10606   0.00055
  25        3S          0.08410   0.08243   0.14559  -0.00086  -0.01552
  26        3PX        -0.05278  -0.02817  -0.06726   0.00245  -0.01357
  27        3PY        -0.09092  -0.06557  -0.10797  -0.00126  -0.02089
  28        3PZ         0.00323  -0.00140   0.00027   0.16599   0.00090
  29        4S         -0.00326   0.04272   0.07849   0.00162  -0.03927
  30        4PX        -0.02124  -0.02819  -0.03011   0.00224  -0.00372
  31        4PY        -0.03491  -0.03021  -0.06338  -0.00206  -0.00329
  32        4PZ         0.00315  -0.00247   0.00005   0.15896   0.00109
  33 5   H  1S         -0.01731   0.00029  -0.02164   0.00012  -0.00884
  34        2S         -0.02552   0.01008  -0.04250  -0.00110  -0.01096
  35        3S         -0.00710   0.00775  -0.02918  -0.00095   0.00090
  36 6   H  1S         -0.01732  -0.01822  -0.00993   0.00023  -0.00975
  37        2S         -0.02691  -0.04065  -0.01208   0.00111  -0.01331
  38        3S         -0.00849  -0.02950  -0.00809   0.00139  -0.00061
                          11        12        13        14        15
  11        4PX         0.06530
  12        4PY        -0.01226   0.05282
  13        4PZ        -0.00229  -0.00104   0.14404
  14 2   H  1S          0.03939  -0.05682  -0.00097   0.09351
  15        2S          0.04009  -0.06874  -0.00139   0.10452   0.11853
  16        3S          0.01009  -0.02268  -0.00091   0.02599   0.03098
  17 3   H  1S         -0.06804   0.00472  -0.00069  -0.01615  -0.01460
  18        2S         -0.07841  -0.00068   0.00088  -0.01465  -0.01168
  19        3S         -0.02436  -0.00266   0.00073  -0.00793  -0.00652
  20 4   C  1S         -0.00355  -0.00734   0.00019   0.00436   0.00739
  21        2S         -0.00715  -0.01437   0.00030   0.00735   0.01259
  22        2PX        -0.02300  -0.01372   0.00198   0.00246   0.00313
  23        2PY        -0.01306  -0.04012  -0.00096   0.00745   0.01902
  24        2PZ        -0.00113  -0.00100   0.09622  -0.00036  -0.00051
  25        3S          0.02545   0.04970  -0.00091  -0.02313  -0.03923
  26        3PX        -0.03744  -0.01892   0.00286   0.00283   0.00309
  27        3PY        -0.01781  -0.06078  -0.00164   0.01361   0.03105
  28        3PZ        -0.00177  -0.00159   0.15059  -0.00056  -0.00077
  29        4S          0.01027   0.02522   0.00120  -0.02466  -0.03364
  30        4PX        -0.03419  -0.00374   0.00269  -0.00567  -0.00791
  31        4PY        -0.00408  -0.03838  -0.00221   0.01567   0.02670
  32        4PZ        -0.00255  -0.00141   0.14422  -0.00086  -0.00111
  33 5   H  1S          0.01139  -0.02219  -0.00041   0.01030   0.01702
  34        2S          0.02441  -0.03839  -0.00187   0.02361   0.03496
  35        3S          0.01473  -0.02151  -0.00129   0.01757   0.02393
  36 6   H  1S         -0.02496  -0.00017   0.00063  -0.00915  -0.01167
  37        2S         -0.04579   0.00332   0.00178  -0.01988  -0.02432
  38        3S         -0.02704   0.00253   0.00175  -0.01075  -0.01276
                          16        17        18        19        20
  16        3S          0.01014
  17 3   H  1S         -0.00751   0.09297
  18        2S         -0.00611   0.10421   0.11844
  19        3S         -0.00076   0.02598   0.03097   0.01017
  20 4   C  1S          0.00508   0.00448   0.00763   0.00520   0.65993
  21        2S          0.00745   0.00751   0.01290   0.00764   0.56181
  22        2PX         0.00385   0.00528   0.01468   0.01196   0.00288
  23        2PY         0.01600   0.00580   0.01167   0.01079   0.00404
  24        2PZ        -0.00045  -0.00054   0.00040   0.00035   0.00008
  25        3S         -0.01939  -0.02347  -0.03992  -0.01993  -0.09090
  26        3PX         0.00481   0.01054   0.02518   0.01887   0.00125
  27        3PY         0.02433   0.00891   0.01711   0.01540   0.00097
  28        3PZ        -0.00069  -0.00081   0.00065   0.00055   0.00010
  29        4S         -0.01002  -0.02267  -0.03137  -0.00936  -0.08703
  30        4PX        -0.00128   0.01690   0.02761   0.01501   0.00008
  31        4PY         0.01584   0.00410   0.00753   0.00665   0.00096
  32        4PZ        -0.00078  -0.00005   0.00156   0.00086   0.00026
  33 5   H  1S          0.01020  -0.00887  -0.01157  -0.00231  -0.01704
  34        2S          0.01801  -0.01917  -0.02376  -0.00559  -0.02076
  35        3S          0.01017  -0.00987  -0.01175  -0.00326   0.00003
  36 6   H  1S         -0.00203   0.01054   0.01700   0.01021  -0.01563
  37        2S         -0.00515   0.02360   0.03478   0.01828  -0.01979
  38        3S         -0.00324   0.01809   0.02473   0.01085  -0.00040
                          21        22        23        24        25
  21        2S          0.49217
  22        2PX         0.00434   0.07346
  23        2PY         0.00603   0.00586   0.08330
  24        2PZ         0.00011   0.00002   0.00014   0.06430
  25        3S         -0.15614  -0.01333  -0.01842  -0.00035   0.45937
  26        3PX         0.00214   0.11634   0.00553  -0.00019  -0.00969
  27        3PY         0.00172   0.00568   0.12659   0.00017  -0.01005
  28        3PZ         0.00016  -0.00007   0.00030   0.10064  -0.00053
  29        4S         -0.12812   0.01075   0.01486   0.00088   0.31739
  30        4PX        -0.00107   0.08538  -0.00844   0.00011   0.00423
  31        4PY        -0.00045  -0.00774   0.07541  -0.00049   0.00424
  32        4PZ         0.00044   0.00104  -0.00001   0.09636  -0.00137
  33 5   H  1S         -0.02730  -0.02740   0.05915   0.00093   0.07328
  34        2S         -0.03315  -0.04629   0.08852   0.00066   0.08839
  35        3S         -0.00115  -0.02549   0.03719   0.00006   0.00584
  36 6   H  1S         -0.02509   0.06255   0.00369  -0.00068   0.06696
  37        2S         -0.03162   0.09882   0.00120  -0.00063   0.08349
  38        3S         -0.00171   0.04764  -0.00504   0.00021   0.00656
                          26        27        28        29        30
  26        3PX         0.18479
  27        3PY         0.00375   0.19335
  28        3PZ        -0.00046   0.00039   0.15752
  29        4S          0.02366   0.03400   0.00138   0.23692
  30        4PX         0.13669  -0.01599   0.00004   0.02095   0.10456
  31        4PY        -0.01521   0.11629  -0.00067   0.02339  -0.02268
  32        4PZ         0.00133  -0.00014   0.15082   0.00086   0.00147
  33 5   H  1S         -0.04446   0.09464   0.00156   0.06368  -0.04152
  34        2S         -0.07564   0.14116   0.00120   0.07858  -0.07034
  35        3S         -0.04220   0.05851   0.00017   0.00861  -0.03850
  36 6   H  1S          0.10126   0.00577  -0.00116   0.06434   0.07738
  37        2S          0.15982   0.00105  -0.00113   0.08441   0.12333
  38        3S          0.07665  -0.00937   0.00025   0.01452   0.06003
                          31        32        33        34        35
  31        4PY         0.07259
  32        4PZ        -0.00116   0.14442
  33 5   H  1S          0.06344   0.00060   0.07151
  34        2S          0.09563  -0.00030   0.10639   0.16064
  35        3S          0.04057  -0.00053   0.04227   0.06649   0.03079
  36 6   H  1S         -0.00514  -0.00021  -0.01159  -0.02676  -0.02264
  37        2S         -0.01386   0.00046  -0.02685  -0.05471  -0.03987
  38        3S         -0.01339   0.00111  -0.02388  -0.04155  -0.02340
                          36        37        38
  36 6   H  1S          0.06814
  37        2S          0.10469   0.16284
  38        3S          0.04520   0.07273   0.03570
    Full Mulliken population analysis:
                           1         2         3         4         5
   1 1   C  1S          0.65944
   2        2S          0.49375   0.49311
   3        2PX         0.00000   0.00000   0.09376
   4        2PY         0.00000   0.00000   0.00000   0.09161
   5        2PZ         0.00000   0.00000   0.00000   0.00000   0.06432
   6        3S         -0.02947  -0.06500   0.00000   0.00000   0.00000
   7        3PX         0.00000   0.00000   0.08927   0.00000   0.00000
   8        3PY         0.00000   0.00000   0.00000   0.08552   0.00000
   9        3PZ         0.00000   0.00000   0.00000   0.00000   0.06675
  10        4S         -0.01152  -0.01985   0.00000   0.00000   0.00000
  11        4PX         0.00000   0.00000   0.01655   0.00000   0.00000
  12        4PY         0.00000   0.00000   0.00000   0.01486   0.00000
  13        4PZ         0.00000   0.00000   0.00000   0.00000   0.02120
  14 2   H  1S         -0.00058  -0.00092   0.00515   0.00804   0.00000
  15        2S         -0.00248  -0.00476   0.00585   0.01170   0.00000
  16        3S          0.00010  -0.00003   0.00039   0.00135   0.00000
  17 3   H  1S         -0.00056  -0.00089   0.01277   0.00012   0.00001
  18        2S         -0.00248  -0.00475   0.01761  -0.00020   0.00000
  19        3S          0.00009  -0.00003   0.00184  -0.00009  -0.00000
  20 4   C  1S          0.00000   0.00000  -0.00002  -0.00006  -0.00000
  21        2S          0.00000  -0.00000  -0.00002  -0.00005  -0.00000
  22        2PX        -0.00001  -0.00001   0.00011   0.00076   0.00000
  23        2PY        -0.00004  -0.00004   0.00075   0.00183  -0.00000
  24        2PZ        -0.00000  -0.00000  -0.00000   0.00000   0.00037
  25        3S         -0.00045  -0.00076   0.00267   0.00825   0.00000
  26        3PX        -0.00040  -0.00074   0.00023   0.00532   0.00000
  27        3PY        -0.00122  -0.00221   0.00519   0.01091  -0.00000
  28        3PZ        -0.00000  -0.00000  -0.00000   0.00000   0.00563
  29        4S          0.00042   0.00044   0.00123   0.00397  -0.00000
  30        4PX        -0.00016  -0.00042  -0.00103   0.00143   0.00000
  31        4PY        -0.00046  -0.00118   0.00143   0.00125  -0.00000
  32        4PZ        -0.00000  -0.00000  -0.00000   0.00000   0.00888
  33 5   H  1S          0.00000  -0.00000  -0.00000  -0.00000   0.00000
  34        2S          0.00000   0.00001   0.00000  -0.00019  -0.00000
  35        3S          0.00003   0.00006   0.00002  -0.00066  -0.00000
  36 6   H  1S          0.00000  -0.00000  -0.00000  -0.00000  -0.00000
  37        2S          0.00000   0.00001  -0.00013  -0.00003  -0.00000
  38        3S          0.00003   0.00006  -0.00052  -0.00011  -0.00000
                           6         7         8         9        10
   6        3S          0.45618
   7        3PX         0.00000   0.21484
   8        3PY         0.00000   0.00000   0.20183
   9        3PZ         0.00000   0.00000   0.00000   0.17502
  10        4S          0.19148   0.00000   0.00000   0.00000   0.15004
  11        4PX         0.00000   0.07418   0.00000   0.00000   0.00000
  12        4PY         0.00000   0.00000   0.06526   0.00000   0.00000
  13        4PZ         0.00000   0.00000   0.00000   0.10374   0.00000
  14 2   H  1S          0.02669   0.02219   0.03323   0.00000   0.02117
  15        2S          0.05560   0.02398   0.04573   0.00000   0.04977
  16        3S          0.00314   0.00215   0.00691   0.00000   0.00872
  17 3   H  1S          0.02642   0.05408   0.00072   0.00003   0.02142
  18        2S          0.05566   0.06997  -0.00053   0.00001   0.05057
  19        3S          0.00306   0.00955  -0.00041  -0.00000   0.00878
  20 4   C  1S         -0.00049  -0.00061  -0.00187  -0.00000   0.00046
  21        2S         -0.00080  -0.00113  -0.00344  -0.00000   0.00063
  22        2PX         0.00193   0.00020   0.00543   0.00000   0.00047
  23        2PY         0.00579   0.00535   0.01078  -0.00000   0.00127
  24        2PZ         0.00000  -0.00000   0.00000   0.00594   0.00000
  25        3S          0.01726   0.01501   0.04608   0.00000  -0.00578
  26        3PX         0.00961  -0.00122   0.01890   0.00000   0.00208
  27        3PY         0.02878   0.01842   0.03056  -0.00000   0.00555
  28        3PZ         0.00000  -0.00000   0.00000   0.03406   0.00000
  29        4S         -0.00121   0.00653   0.02086  -0.00000  -0.02437
  30        4PX         0.00592  -0.00562   0.00599   0.00000   0.00113
  31        4PY         0.01691   0.00601   0.00202  -0.00000   0.00173
  32        4PZ         0.00001  -0.00000   0.00000   0.04990   0.00000
  33 5   H  1S         -0.00002   0.00000  -0.00009   0.00000  -0.00033
  34        2S         -0.00057   0.00006  -0.00232  -0.00000  -0.00138
  35        3S         -0.00091   0.00012  -0.00399  -0.00000   0.00027
  36 6   H  1S         -0.00001  -0.00005  -0.00002  -0.00000  -0.00033
  37        2S         -0.00054  -0.00165  -0.00035  -0.00000  -0.00158
  38        3S         -0.00104  -0.00319  -0.00062  -0.00000  -0.00018
                          11        12        13        14        15
  11        4PX         0.06530
  12        4PY         0.00000   0.05282
  13        4PZ         0.00000   0.00000   0.14404
  14 2   H  1S          0.01011   0.01551   0.00000   0.09351
  15        2S          0.01688   0.03079   0.00000   0.07383   0.11853
  16        3S          0.00322   0.00769   0.00000   0.00971   0.02444
  17 3   H  1S          0.02500   0.00034   0.00001  -0.00001  -0.00041
  18        2S          0.04733  -0.00008  -0.00002  -0.00041  -0.00152
  19        3S          0.01114  -0.00024  -0.00001  -0.00090  -0.00193
  20 4   C  1S         -0.00020  -0.00073  -0.00000   0.00000   0.00005
  21        2S         -0.00050  -0.00175  -0.00000   0.00000   0.00008
  22        2PX        -0.00120   0.00095   0.00000  -0.00000  -0.00000
  23        2PY         0.00091   0.00114  -0.00000  -0.00001  -0.00059
  24        2PZ        -0.00000  -0.00000   0.00886  -0.00000  -0.00000
  25        3S          0.00709   0.02407   0.00000  -0.00023  -0.00319
  26        3PX        -0.00747   0.00376   0.00000  -0.00000  -0.00000
  27        3PY         0.00354   0.00194  -0.00000  -0.00048  -0.00504
  28        3PZ        -0.00000  -0.00000   0.04727  -0.00000  -0.00000
  29        4S          0.00310   0.01325  -0.00000  -0.00217  -0.00828
  30        4PX        -0.01619   0.00096   0.00000   0.00000   0.00001
  31        4PY         0.00104  -0.00675  -0.00000  -0.00336  -0.01238
  32        4PZ        -0.00000  -0.00000   0.08951  -0.00000  -0.00000
  33 5   H  1S          0.00014  -0.00246  -0.00000   0.00000   0.00000
  34        2S          0.00079  -0.01119  -0.00001   0.00000   0.00015
  35        3S          0.00069  -0.00904  -0.00001   0.00028   0.00139
  36 6   H  1S         -0.00213  -0.00001  -0.00000  -0.00000  -0.00004
  37        2S         -0.01046   0.00054  -0.00001  -0.00006  -0.00077
  38        3S         -0.00912   0.00061  -0.00001  -0.00054  -0.00192
                          16        17        18        19        20
  16        3S          0.01014
  17 3   H  1S         -0.00086   0.09297
  18        2S         -0.00181   0.07361   0.11844
  19        3S         -0.00040   0.00971   0.02444   0.01017
  20 4   C  1S          0.00017   0.00000   0.00004   0.00017   0.65993
  21        2S          0.00030   0.00000   0.00008   0.00030   0.49352
  22        2PX        -0.00000  -0.00000  -0.00036  -0.00051   0.00000
  23        2PY        -0.00081  -0.00000  -0.00017  -0.00028   0.00000
  24        2PZ        -0.00000   0.00000  -0.00000  -0.00000   0.00000
  25        3S         -0.00437  -0.00021  -0.00303  -0.00436  -0.02992
  26        3PX        -0.00000  -0.00028  -0.00333  -0.00312   0.00000
  27        3PY        -0.00477  -0.00014  -0.00135  -0.00153   0.00000
  28        3PZ        -0.00000   0.00000  -0.00000  -0.00000   0.00000
  29        4S         -0.00454  -0.00191  -0.00746  -0.00416  -0.01338
  30        4PX         0.00000  -0.00301  -0.01075  -0.00654   0.00000
  31        4PY        -0.00810  -0.00044  -0.00176  -0.00173   0.00000
  32        4PZ        -0.00000   0.00000  -0.00001  -0.00001   0.00000
  33 5   H  1S          0.00016  -0.00000  -0.00003  -0.00011  -0.00009
  34        2S          0.00104  -0.00005  -0.00072  -0.00082  -0.00113
  35        3S          0.00183  -0.00048  -0.00173  -0.00108   0.00000
  36 6   H  1S         -0.00010   0.00000   0.00000   0.00014  -0.00006
  37        2S         -0.00078   0.00000   0.00012   0.00095  -0.00095
  38        3S         -0.00109   0.00025   0.00128   0.00181  -0.00003
                          21        22        23        24        25
  21        2S          0.49217
  22        2PX         0.00000   0.07346
  23        2PY         0.00000   0.00000   0.08330
  24        2PZ         0.00000   0.00000   0.00000   0.06430
  25        3S         -0.06539   0.00000   0.00000   0.00000   0.45937
  26        3PX         0.00000   0.07319   0.00000   0.00000   0.00000
  27        3PY         0.00000   0.00000   0.07964   0.00000   0.00000
  28        3PZ         0.00000   0.00000   0.00000   0.06332   0.00000
  29        4S         -0.02398   0.00000   0.00000   0.00000   0.24588
  30        4PX         0.00000   0.01880   0.00000   0.00000   0.00000
  31        4PY         0.00000   0.00000   0.01661   0.00000   0.00000
  32        4PZ         0.00000   0.00000   0.00000   0.02122   0.00000
  33 5   H  1S         -0.00011   0.00056   0.00329   0.00000   0.00956
  34        2S         -0.00214   0.00236   0.01231   0.00000   0.03073
  35        3S         -0.00010   0.00059   0.00235   0.00000   0.00248
  36 6   H  1S         -0.00007   0.00283   0.00003   0.00000   0.00749
  37        2S         -0.00178   0.01336   0.00003   0.00000   0.02661
  38        3S         -0.00014   0.00316  -0.00005  -0.00000   0.00268
                          26        27        28        29        30
  26        3PX         0.18479
  27        3PY         0.00000   0.19335
  28        3PZ         0.00000   0.00000   0.15752
  29        4S          0.00000   0.00000   0.00000   0.23692
  30        4PX         0.08932   0.00000   0.00000   0.00000   0.10456
  31        4PY         0.00000   0.07599   0.00000   0.00000   0.00000
  32        4PZ         0.00000   0.00000   0.09855   0.00000   0.00000
  33 5   H  1S          0.00458   0.02662   0.00001   0.01482   0.00521
  34        2S          0.01163   0.05926   0.00001   0.04103   0.01530
  35        3S          0.00344   0.01304   0.00000   0.00612   0.00683
  36 6   H  1S          0.02671   0.00024   0.00001   0.01413   0.02741
  37        2S          0.06739   0.00007   0.00001   0.04214   0.07673
  38        3S          0.01802  -0.00035  -0.00000   0.01005   0.03101
                          31        32        33        34        35
  31        4PY         0.07259
  32        4PZ         0.00000   0.14442
  33 5   H  1S          0.02174   0.00001   0.07151
  34        2S          0.05681  -0.00000   0.07515   0.16064
  35        3S          0.01965  -0.00001   0.01580   0.05246   0.03079
  36 6   H  1S         -0.00029   0.00000  -0.00000  -0.00064  -0.00244
  37        2S         -0.00137  -0.00001  -0.00064  -0.00645  -0.01129
  38        3S         -0.00110  -0.00001  -0.00257  -0.01176  -0.01192
                          36        37        38
  36 6   H  1S          0.06814
  37        2S          0.07395   0.16284
  38        3S          0.01689   0.05738   0.03570
     Gross orbital populations:
                           1
   1 1   C  1S          1.10404
   2        2S          0.88585
   3        2PX         0.25310
   4        2PY         0.24553
   5        2PZ         0.16715
   6        3S          0.80438
   7        3PX         0.59844
   8        3PY         0.56616
   9        3PZ         0.43544
  10        4S          0.45021
  11        4PX         0.23975
  12        4PY         0.20223
  13        4PZ         0.41458
  14 2   H  1S          0.30976
  15        2S          0.41547
  16        3S          0.05381
  17 3   H  1S          0.30821
  18        2S          0.41666
  19        3S          0.05389
  20 4   C  1S          1.10481
  21        2S          0.88569
  22        2PX         0.19605
  23        2PY         0.22338
  24        2PZ         0.16402
  25        3S          0.78756
  26        3PX         0.50242
  27        3PY         0.53601
  28        3PZ         0.40638
  29        4S          0.56942
  30        4PX         0.34690
  31        4PY         0.25485
  32        4PZ         0.41245
  33 5   H  1S          0.24270
  34        2S          0.48037
  35        3S          0.11458
  36 6   H  1S          0.23178
  37        2S          0.48330
  38        3S          0.13265
          Condensed to atoms (all electrons):
               1          2          3          4          5          6
     1  C    5.055752   0.407281   0.406269   0.559386  -0.030970  -0.030838
     2  H    0.407281   0.438149  -0.008240  -0.057708   0.004851  -0.005300
     3  H    0.406269  -0.008240   0.437087  -0.055864  -0.005028   0.004545
     4  C    0.559386  -0.057708  -0.055864   5.213461   0.366759   0.363908
     5  H   -0.030970   0.004851  -0.005028   0.366759   0.549746  -0.047714
     6  H   -0.030838  -0.005300   0.004545   0.363908  -0.047714   0.563128
 Mulliken charges:
               1
     1  C   -0.366879
     2  H    0.220966
     3  H    0.221230
     4  C   -0.389943
     5  H    0.162355
     6  H    0.152271
 Sum of Mulliken charges =  -0.00000
 Mulliken charges with hydrogens summed into heavy atoms:
               1
     1  C    0.075317
     4  C   -0.075317
 Electronic spatial extent (au):  <R**2>=             84.7287
 Charge=             -0.0000 electrons
 Dipole moment (field-independent basis, Debye):
    X=             -0.0153    Y=              0.0594    Z=             -0.0327  Tot=              0.0696
 Quadrupole moment (field-independent basis, Debye-Ang):
   XX=            -12.3125   YY=            -12.5475   ZZ=            -15.8122
   XY=             -0.1962   XZ=              0.0165   YZ=              0.0438
 Traceless Quadrupole moment (field-independent basis, Debye-Ang):
   XX=              1.2449   YY=              1.0099   ZZ=             -2.2548
   XY=             -0.1962   XZ=              0.0165   YZ=              0.0438
 Octapole moment (field-independent basis, Debye-Ang**2):
  XXX=             -1.6101  YYY=             -0.6276  ZZZ=             -0.0151  XYY=              0.6664
  XXY=             -0.3221  XXZ=             -0.1298  XZZ=             -0.5639  YZZ=             -0.8027
  YYZ=              0.0568  XYZ=             -0.0534
 Hexadecapole moment (field-independent basis, Debye-Ang**3):
 XXXX=            -36.1888 YYYY=            -56.6679 ZZZZ=            -18.1004 XXXY=             -7.9087
 XXXZ=              0.0828 YYYX=            -10.9886 YYYZ=              0.1197 ZZZX=              0.0901
 ZZZY=             -0.0165 XXYY=            -16.6439 XXZZ=            -10.3841 YYZZ=            -13.9648
 XXYZ=             -0.0230 YYXZ=              0.0050 ZZXY=             -3.4314
 N-N= 3.301360798431D+01 E-N=-2.476180627693D+02  KE= 7.818317513518D+01
 Orbital energies and kinetic energies (alpha):
                                 1                 2
   1         O               -10.316580         15.988223
   2         O               -10.274989         15.969386
   3         O                -0.877104          1.534307
   4         O                -0.659549          1.279734
   5         O                -0.597858          1.032560
   6         O                -0.491417          1.281422
   7         O                -0.419249          0.968095
   8         O                -0.358565          1.037861
   9         V                 0.074763          1.197937
  10         V                 0.125601          0.730933
  11         V                 0.159276          0.659307
  12         V                 0.171260          0.634518
  13         V                 0.226071          0.590179
  14         V                 0.327079          0.883494
  15         V                 0.397179          0.917123
  16         V                 0.424309          0.845616
  17         V                 0.430416          1.217241
  18         V                 0.492117          1.307282
  19         V                 0.513071          1.239905
  20         V                 0.586621          1.630349
  21         V                 0.653416          1.585463
  22         V                 0.721437          1.812808
  23         V                 0.746389          2.228590
  24         V                 0.789413          2.477144
  25         V                 0.851194          1.336914
  26         V                 0.929463          3.347866
  27         V                 2.207399          3.936232
  28         V                 2.317157          3.927039
  29         V                 2.378770          4.232839
  30         V                 2.461501          4.804813
  31         V                 2.663104          6.293631
  32         V                 2.815320          6.310278
  33         V                 2.838515          6.225258
  34         V                 2.912477          6.246523
  35         V                 3.106467          6.788420
  36         V                 3.320381          6.294952
  37         V                23.349307         60.082644
  38         V                23.708750         60.200412
 Total kinetic energy from orbitals= 7.818317513518D+01
 Calling FoFJK, ICntrl=      2127 FMM=F ISym2X=0 I1Cent= 0 IOpClX= 0 NMat=1 NMatS=1 NMatT=0.
 -------------------------------------------------------------------
 Center     Atomic                   Forces (Hartrees/Bohr)
 Number     Number              X              Y              Z
 -------------------------------------------------------------------
      1        6           0.066957871    0.122569205   -0.000210559
      2        1           0.032948040   -0.091812308   -0.001215642
      3        1          -0.089547286   -0.018316366   -0.000074006
      4        6           0.052843625    0.075754071    0.001881411
      5        1           0.005358610   -0.061407100   -0.002763024
      6        1          -0.068560860   -0.026787502    0.002381820
 -------------------------------------------------------------------
 Cartesian Forces:  Max     0.122569205 RMS     0.055348922

 GradGradGradGradGradGradGradGradGradGradGradGradGradGradGradGradGradGrad
 Berny optimization.
 Search for a local minimum.
 Step number   1 out of a maximum of    2
 All quantities printed in internal units (Hartrees-Bohrs-Radians)
 Second derivative matrix not updated -- first step.
 The second derivative matrix:
                          X1        Y1        Z1        X2        Y2
           X1           1.02739
           Y1          -0.07300   0.92377
           Z1           0.01446   0.00408   0.16663
           X2          -0.31631   0.18747  -0.00160   0.28859
           Y2           0.18217  -0.33366  -0.00477  -0.20823   0.31417
           Z2           0.00008  -0.00654  -0.05614   0.00008   0.00353
           X3          -0.48762   0.06852  -0.01419   0.00645   0.00606
           Y3           0.07333  -0.15481  -0.00085   0.03299   0.03101
           Z3          -0.01667  -0.00047  -0.05746   0.00169   0.00150
           X4          -0.24914  -0.16822   0.00144   0.02126   0.02000
           Y4          -0.16825  -0.44349   0.00176  -0.01224  -0.01151
           Z4           0.00207   0.00280  -0.08715  -0.00018  -0.00026
           X5           0.02212  -0.01273  -0.00036   0.00000   0.00000
           Y5           0.00811  -0.00467  -0.00059  -0.00000  -0.00000
           Z5          -0.00046   0.00035   0.01792   0.00007   0.00000
           X6           0.00356  -0.00205   0.00025  -0.00000  -0.00000
           Y6          -0.02236   0.01287   0.00038   0.00000   0.00000
           Z6           0.00051  -0.00021   0.01621  -0.00006  -0.00000
                          Z2        X3        Y3        Z3        X4
           Z2           0.03023
           X3           0.00013   0.48680
           Y3           0.00278  -0.07781   0.10740
           Z3           0.01308   0.01468  -0.00092   0.03076
           X4          -0.00041  -0.00563  -0.02851   0.00041   0.53224
           Y4           0.00030   0.00324   0.01640  -0.00017   0.15444
           Z4           0.01237  -0.00064  -0.00099   0.01407  -0.00610
           X5           0.00028   0.00001  -0.00001  -0.00028  -0.09910
           Y5          -0.00012  -0.00000   0.00000   0.00012   0.04985
           Z5           0.00859   0.00024  -0.00018  -0.00865   0.00222
           X6          -0.00016  -0.00000   0.00000   0.00016  -0.19964
           Y6           0.00006   0.00000  -0.00000  -0.00006  -0.02757
           Z6          -0.00814  -0.00022   0.00017   0.00819   0.00244
                          Y4        Z4        X5        Y5        Z5
           Y4           0.74074
           Z4           0.00236   0.16062
           X5           0.04215   0.00189   0.08124
           Y5          -0.21984  -0.00402  -0.05639   0.21462
           Z5          -0.00418  -0.05202  -0.00231   0.00453   0.02599
           X6          -0.01934   0.00295  -0.00427  -0.00157   0.00024
           Y6          -0.08230   0.00011   0.02698   0.00989  -0.00052
           Z6          -0.00007  -0.04789   0.00078   0.00008   0.00817
                          X6        Y6        Z6
           X6           0.20035
           Y6           0.02295   0.05953
           Z6          -0.00344   0.00004   0.02347
 ITU=  0
     Eigenvalues ---    0.03354   0.04313   0.08667   0.09433   0.12380
     Eigenvalues ---    0.15750   0.24529   0.32485   0.52323   0.55810
     Eigenvalues ---    1.34189   1.45479
 Quadratic step=4.761D-01 exceeds max=3.000D-01 adjusted using Lamda=-2.339D-01.
 Angle between NR and scaled steps=  12.05 degrees.
 Angle between quadratic step and forces=  24.17 degrees.
 Linear search not attempted -- first point.
 B after Tr=     0.024294    0.037908   -0.000986
         Rot=    1.000000   -0.000241    0.000134    0.000166 Ang=  -0.04 deg.
 Variable       Old X    -DE/DX   Delta X   Delta X   Delta X     New X
                                 (Linear)    (Quad)   (Total)
    X1       -0.67438   0.06696   0.00000   0.05267   0.07660  -0.59778
    Y1       -1.16433   0.12257   0.00000   0.08848   0.12659  -1.03774
    Z1        0.00762  -0.00021   0.00000  -0.00577  -0.00744   0.00018
    X2        0.59688   0.03295   0.00000   0.00652   0.02994   0.62681
    Y2       -2.51613  -0.09181   0.00000  -0.13562  -0.09791  -2.61404
    Z2       -0.00212  -0.00122   0.00000  -0.00011  -0.00221  -0.00433
    X3       -2.50144  -0.08955   0.00000  -0.10735  -0.08333  -2.58477
    Y3       -0.80446  -0.01832   0.00000  -0.05490  -0.01611  -0.82057
    Z3       -0.04993  -0.00007   0.00000   0.00925   0.00715  -0.04278
    X4        0.60236   0.05284   0.00000   0.04813   0.07279   0.67515
    Y4        1.05427   0.07575   0.00000   0.06830   0.10599   1.16026
    Z4       -0.00287   0.00188   0.00000   0.00213   0.00186  -0.00101
    X5       -0.18755   0.00536   0.00000  -0.00760   0.01771  -0.16985
    Y5        3.21128  -0.06141   0.00000  -0.12194  -0.08399   3.12729
    Z5        0.05255  -0.00276   0.00000  -0.00743  -0.00698   0.04557
    X6        2.96495  -0.06856   0.00000  -0.13847  -0.11371   2.85123
    Y6        1.42947  -0.02679   0.00000  -0.07156  -0.03457   1.39490
    Z6       -0.04777   0.00238   0.00000   0.00720   0.00762  -0.04015
         Item               Value     Threshold  Converged?
 Maximum Force            0.122569     0.000450     NO 
 RMS     Force            0.055349     0.000300     NO 
 Maximum Displacement     0.126591     0.001800     NO 
 RMS     Displacement     0.065756     0.001200     NO 
 Predicted change in Energy=-4.266264D-02
 GradGradGradGradGradGradGradGradGradGradGradGradGradGradGradGradGradGrad

 Unable to Open any file for archive entry.
 1\1\GINC-BHD0006\Force\RwB97XD\6-311G\C2H4\BWEIGHT\09-Jan-2023\0\\# WB
 97XD/6-311G SCF=XQC FORCE nosym pop=full guess=read\\MD Step 335\\0,1\
 C,-0.35686866,-0.61613765,0.00403162\H,0.31585288,-1.33147731,-0.00112
 365\H,-1.32370608,-0.42570331,-0.02642327\C,0.31875296,0.55789549,-0.0
 015188\H,-0.09924874,1.69933492,0.02780703\H,1.56898215,0.75644209,-0.
 02527862\\Version=ES64L-G16RevC.01\HF=-78.4966016\RMSD=5.826e-09\RMSF=
 5.535e-02\Dipole=-0.0060301,0.0233886,-0.0128674\Quadrupole=0.925525,0
 .7508342,-1.6763592,-0.1458401,0.0122579,0.0325785\PG=C01 [X(C2H4)]\\@
 The archive entry for this job was punched.


 YOU CAN WIPE THE SLATE CLEAN, BUT YOU'LL STILL
 HAVE TO EAT A LITTLE CHALK DUST.
 Job cpu time:       0 days  0 hours  0 minutes 43.3 seconds.
 Elapsed time:       0 days  0 hours  0 minutes  2.2 seconds.
 File lengths (MBytes):  RWF=    272 Int=      0 D2E=      0 Chk=     32 Scr=     32
 Normal termination of Gaussian 16 at Mon Jan  9 18:37:15 2023.
