6
MD Step 0
C  -0.33763715 -0.58748864 0.00000000
H  0.19552659 -1.51519357 0.00000000
H  -1.40763715 -0.58748864 0.00000000
C  0.33763715 0.58748865 0.00000000
H  -0.19552659 1.51519357 0.00000000
H  1.40763715 0.58748865 0.00000000
6
MD Step 1
C  -0.33800585 -0.58783595 -0.00039411
H  0.19788710 -1.51298868 0.00234715
H  -1.40541760 -0.58520726 0.00235251
C  0.33721659 0.58704642 -0.00039540
H  -0.19318543 1.51769065 0.00235144
H  1.41012077 0.58991342 0.00235679
6
MD Step 2
C  -0.33831982 -0.58808810 -0.00078970
H  0.20027958 -1.51108366 0.00470303
H  -1.40350944 -0.58306610 0.00471383
C  0.33674707 0.58651092 -0.00079224
H  -0.19085178 1.52046408 0.00471149
H  1.41282255 0.59247939 0.00472207
6
MD Step 3
C  -0.33856986 -0.58823856 -0.00118102
H  0.20266872 -1.50952297 0.00703346
H  -1.40199151 -0.58110624 0.00705002
C  0.33623940 0.58589190 -0.00118471
H  -0.18855239 1.52344952 0.00704560
H  1.41564495 0.59514253 0.00706103
6
MD Step 4
C  -0.33875664 -0.58829104 -0.00157147
H  0.20507009 -1.50828955 0.00935844
H  -1.40087854 -0.57931356 0.00938151
C  0.33569554 0.58519097 -0.00157604
H  -0.18625773 1.52663155 0.00937319
H  1.41854226 0.59791211 0.00939266
6
MD Step 5
C  -0.33888081 -0.58824949 -0.00196354
H  0.20749077 -1.50736445 0.01169270
H  -1.40017992 -0.57767823 0.01172359
C  0.33511853 0.58441151 -0.00196855
H  -0.18394185 1.52998493 0.01170821
H  1.42146245 0.60079122 0.01173041
6
MD Step 6
C  -0.33894079 -0.58811574 -0.00235658
H  0.20991606 -1.50674067 0.01403218
H  -1.39991266 -0.57620828 0.01407290
C  0.33451465 0.58356084 -0.00236139
H  -0.18159636 1.53346189 0.01404569
H  1.42433495 0.60376335 0.01406869
6
MD Step 7
C  -0.33893231 -0.58788900 -0.00274629
H  0.21230672 -1.50642655 0.01635105
H  -1.40010384 -0.57493253 0.01640439
C  0.33389387 0.58265063 -0.00275001
H  -0.17923391 1.53699022 0.01635872
H  1.42706925 0.60678946 0.01637995
6
MD Step 8
C  -0.33885989 -0.58757721 -0.00313610
H  0.21466720 -1.50637828 0.01866955
H  -1.40072199 -0.57383270 0.01873902
C  0.33325828 0.58168535 -0.00313760
H  -0.17682096 1.54054242 0.01866636
H  1.42962467 0.60987608 0.01868264
6
MD Step 9
C  -0.33872100 -0.58718109 -0.00352134
H  0.21695191 -1.50659495 0.02095976
H  -1.40177211 -0.57293760 0.02104968
C  0.33261793 0.58067801 -0.00351926
H  -0.17437234 1.54404234 0.02093952
H  1.43191692 0.61298114 0.02094703
6
MD Step 10
C  -0.33851749 -0.58670557 -0.00390071
H  0.21913385 -1.50705104 0.02321380
H  -1.40322756 -0.57225486 0.02332917
C  0.33197921 0.57963851 -0.00389346
H  -0.17188370 1.54743469 0.02316912
H  1.43388780 0.61608240 0.02316349
6
MD Step 11
C  -0.33824791 -0.58615194 -0.00426854
H  0.22115936 -1.50774305 0.02539795
H  -1.40507682 -0.57181673 0.02554445
C  0.33135256 0.57858128 -0.00425439
H  -0.16937768 1.55064019 0.02532039
H  1.43546033 0.61913174 0.02529662
6
MD Step 12
C  -0.33792170 -0.58553212 -0.00462912
H  0.22303382 -1.50860509 0.02753792
H  -1.40723894 -0.57159487 0.02772137
C  0.33073804 0.57751077 -0.00460618
H  -0.16681928 1.55364191 0.02741793
H  1.43662511 0.62214063 0.02737089
6
MD Step 13
C  -0.33754599 -0.58485540 -0.00498364
H  0.22474423 -1.50958806 0.02964077
H  -1.40964395 -0.57157830 0.02986697
C  0.33013845 0.57643450 -0.00494987
H  -0.16419409 1.55640785 0.02946784
H  1.43736226 0.62510213 0.02939234
6
MD Step 14
C  -0.33712785 -0.58413073 -0.00533251
H  0.22627417 -1.51064627 0.03170934
H  -1.41222041 -0.57175911 0.03198383
C  0.32955690 0.57536054 -0.00528582
H  -0.16149416 1.55890591 0.03147212
H  1.43765598 0.62800534 0.03136308
6
MD Step 15
C  -0.33666715 -0.58335961 -0.00566836
H  0.22756252 -1.51178017 0.03370029
H  -1.41493924 -0.57217415 0.03402875
C  0.32900384 0.57430440 -0.00560680
H  -0.15875993 1.56106273 0.03338710
H  1.43745294 0.63079370 0.03323905
6
MD Step 16
C  -0.33617657 -0.58255608 -0.00599631
H  0.22862371 -1.51291718 0.03564435
H  -1.41769491 -0.57278532 0.03603130
C  0.32847680 0.57326885 -0.00591786
H  -0.15596086 1.56288425 0.03524280
H  1.43678279 0.63348512 0.03505111
6
MD Step 17
C  -0.33565916 -0.58172433 -0.00631145
H  0.22941544 -1.51404540 0.03751309
H  -1.42044073 -0.57361220 0.03796263
C  0.32798279 0.57226609 -0.00621432
H  -0.15312793 1.56432321 0.03701078
H  1.43562502 0.63603913 0.03677087
6
MD Step 18
C  -0.33512235 -0.58087278 -0.00661317
H  0.22992335 -1.51512984 0.03930363
H  -1.42310569 -0.57464782 0.03981886
C  0.32752404 0.57130350 -0.00649578
H  -0.15026962 1.56536395 0.03868812
H  1.43399358 0.63844153 0.03839602
6
MD Step 19
C  -0.33457535 -0.58001146 -0.00690271
H  0.23014655 -1.51612789 0.04102379
H  -1.42561091 -0.57587356 0.04160630
C  0.32710047 0.57038611 -0.00676361
H  -0.14738669 1.56600786 0.04028271
H  1.43192191 0.64068959 0.03993547
6
MD Step 20
C  -0.33402082 -0.57914368 -0.00717470
H  0.23004869 -1.51703902 0.04264275
H  -1.42792033 -0.57730815 0.04329351
C  0.32671798 0.56952469 -0.00701291
H  -0.14452105 1.56622436 0.04176441
H  1.42941356 0.64274299 0.04135933
6
MD Step 21
C  -0.33346568 -0.57827688 -0.00742833
H  0.22962344 -1.51783989 0.04415658
H  -1.42997627 -0.57894268 0.04487519
C  0.32637743 0.56872479 -0.00724325
H  -0.14169079 1.56601635 0.04312992
H  1.42650735 0.64458926 0.04266530
6
MD Step 22
C  -0.33291447 -0.57741605 -0.00766069
H  0.22885545 -1.51852380 0.04554900
H  -1.43173948 -0.58077968 0.04633406
C  0.32608123 0.56799324 -0.00745222
H  -0.13892894 1.56538120 0.04436397
H  1.42323807 0.64620474 0.04383880
6
MD Step 23
C  -0.33237715 -0.57657150 -0.00787485
H  0.22776756 -1.51905389 0.04683872
H  -1.43314290 -0.58278625 0.04768662
C  0.32582538 0.56733022 -0.00764311
H  -0.13623654 1.56435766 0.04548603
H  1.41968302 0.64760183 0.04490119
6
MD Step 24
C  -0.33185921 -0.57574900 -0.00806982
H  0.22636229 -1.51942200 0.04802054
H  -1.43415118 -0.58495259 0.04892633
C  0.32560939 0.56673905 -0.00781541
H  -0.13364063 1.56296714 0.04649219
H  1.41590259 0.64877029 0.04584976
6
MD Step 25
C  -0.33136908 -0.57495723 -0.00824827
H  0.22466669 -1.51960394 0.04911063
H  -1.43471641 -0.58724741 0.05006709
C  0.32542876 0.56621866 -0.00797201
H  -0.13114940 1.56125812 0.04739968
H  1.41198411 0.64972227 0.04670392
6
MD Step 26
C  -0.33090325 -0.57419272 -0.00840103
H  0.22264310 -1.51964885 0.05005657
H  -1.43486798 -0.58970688 0.05105729
C  0.32529012 0.56577853 -0.00810490
H  -0.12884050 1.55921660 0.04815841
H  1.40795157 0.65040284 0.04741293
6
MD Step 27
C  -0.33047410 -0.57346807 -0.00853632
H  0.22035659 -1.51951144 0.05090623
H  -1.43454465 -0.59226783 0.05194141
C  0.32518290 0.56541068 -0.00822210
H  -0.12669425 1.55693324 0.04881714
H  1.40393232 0.65085808 0.04802895
6
MD Step 28
C  -0.33008165 -0.57278334 -0.00865011
H  0.21780535 -1.51922156 0.05163697
H  -1.43376489 -0.59493674 0.05269669
C  0.32510813 0.56511806 -0.00832038
H  -0.12476158 1.55443309 0.04935532
H  1.39998572 0.65106498 0.04853182
6
MD Step 29
C  -0.32973188 -0.57214465 -0.00874551
H  0.21503083 -1.51877370 0.05226686
H  -1.43251641 -0.59767996 0.05333928
C  0.32505983 0.56489614 -0.00840298
H  -0.12305402 1.55178510 0.04979251
H  1.39621186 0.65104207 0.04894324
6
MD Step 30
C  -0.32941924 -0.57154645 -0.00881425
H  0.21201250 -1.51823180 0.05274887
H  -1.43086132 -0.60052847 0.05382365
C  0.32504291 0.56475056 -0.00846284
H  -0.12164745 1.54899621 0.05008413
H  1.39264473 0.65074405 0.04921761
6
MD Step 31
C  -0.32914703 -0.57099220 -0.00885820
H  0.20878990 -1.51760630 0.05309405
H  -1.42881300 -0.60345593 0.05415991
C  0.32505253 0.56467675 -0.00850209
H  -0.12056002 1.54613292 0.05024290
H  1.38937324 0.65018447 0.04936892
6
MD Step 32
C  -0.32892176 -0.57048868 -0.00888351
H  0.20542851 -1.51688767 0.05333748
H  -1.42636983 -0.60641254 0.05438121
C  0.32507997 0.56466562 -0.00852662
H  -0.11978517 1.54328629 0.05030521
H  1.38650530 0.64940164 0.04943569
6
MD Step 33
C  -0.32874799 -0.57004080 -0.00889516
H  0.20198859 -1.51607685 0.05350726
H  -1.42354618 -0.60935596 0.05451419
C  0.32511798 0.56470896 -0.00854110
H  -0.11932148 1.54053954 0.05030049
H  1.38413426 0.64842762 0.04944898
6
MD Step 34
C  -0.32861965 -0.56964295 -0.00888772
H  0.19847301 -1.51523670 0.05357239
H  -1.42042416 -0.61230316 0.05452964
C  0.32516969 0.56480821 -0.00854088
H  -0.11922359 1.53791466 0.05019948
H  1.38228456 0.64723606 0.04937812
6
MD Step 35
C  -0.32852919 -0.56928820 -0.00885497
H  0.19488115 -1.51443669 0.05349752
H  -1.41709802 -0.61527620 0.05439461
C  0.32523944 0.56496548 -0.00852059
H  -0.11954743 1.53542578 0.04996829
H  1.38096498 0.64579675 0.04918717
6
MD Step 36
C  -0.32847600 -0.56897686 -0.00879884
H  0.19125849 -1.51370178 0.05329324
H  -1.41362254 -0.61825211 0.05412009
C  0.32532442 0.56517523 -0.00848200
H  -0.12029975 1.53312831 0.04961835
H  1.38021809 0.64412592 0.04888724
6
MD Step 37
C  -0.32845924 -0.56870920 -0.00872167
H  0.18765248 -1.51305520 0.05297223
H  -1.41005561 -0.62120646 0.05371940
C  0.32542202 0.56543168 -0.00842713
H  -0.12148086 1.53107411 0.04916297
H  1.38007550 0.64224256 0.04849109
6
MD Step 38
C  -0.32847469 -0.56848239 -0.00862285
H  0.18409331 -1.51253639 0.05253047
H  -1.40647591 -0.62413216 0.05319015
C  0.32553306 0.56573211 -0.00835534
H  -0.12310280 1.52929149 0.04859848
H  1.38053803 0.64014955 0.04799351
6
MD Step 39
C  -0.32852018 -0.56829589 -0.00850442
H  0.18062464 -1.51216865 0.05197866
H  -1.40294998 -0.62700813 0.05254429
C  0.32565646 0.56607166 -0.00826818
H  -0.12515755 1.52781570 0.04793570
H  1.38160702 0.63786516 0.04740412
6
MD Step 40
C  -0.32859030 -0.56814622 -0.00836539
H  0.17727164 -1.51198979 0.05131068
H  -1.39956222 -0.62983077 0.05177787
C  0.32579456 0.56644871 -0.00816456
H  -0.12764817 1.52665662 0.04716824
H  1.38325283 0.63539153 0.04671453
6
MD Step 41
C  -0.32868251 -0.56803296 -0.00820814
H  0.17407556 -1.51201594 0.05053878
H  -1.39637772 -0.63257874 0.05090461
C  0.32594708 0.56685901 -0.00804615
H  -0.13055338 1.52583357 0.04630796
H  1.38545092 0.63274997 0.04593520
6
MD Step 42
C  -0.32878844 -0.56795013 -0.00802891
H  0.17104116 -1.51229303 0.04964148
H  -1.39349277 -0.63526518 0.04990595
C  0.32611983 0.56730448 -0.00790936
H  -0.13387974 1.52532286 0.04533243
H  1.38813056 0.62992887 0.04504107
6
MD Step 43
C  -0.32890985 -0.56790194 -0.00783474
H  0.16822966 -1.51280206 0.04865691
H  -1.39093876 -0.63784370 0.04882080
C  0.32630885 0.56777744 -0.00775991
H  -0.13756796 1.52515186 0.04427931
H  1.39127058 0.62697739 0.04406926
6
MD Step 44
C  -0.32904228 -0.56788652 -0.00762591
H  0.16566122 -1.51355632 0.04758577
H  -1.38877842 -0.64030609 0.04765180
C  0.32651670 0.56827699 -0.00759760
H  -0.14159068 1.52530155 0.04314834
H  1.39480281 0.62390805 0.04301789
6
MD Step 45
C  -0.32917729 -0.56789812 -0.00739818
H  0.16332715 -1.51458827 0.04640393
H  -1.38709140 -0.64266971 0.04637744
C  0.32675015 0.56880688 -0.00741837
H  -0.14594037 1.52571973 0.04191388
H  1.39862655 0.62070939 0.04185915
6
MD Step 46
C  -0.32931839 -0.56794270 -0.00715954
H  0.16128254 -1.51585585 0.04515493
H  -1.38587893 -0.64488375 0.04504172
C  0.32700454 0.56935971 -0.00722881
H  -0.15053638 1.52641557 0.04061922
H  1.40270469 0.61743898 0.04063622
6
MD Step 47
C  -0.32945898 -0.56801612 -0.00690679
H  0.15951593 -1.51737340 0.04382032
H  -1.38519393 -0.64696052 0.04362798
C  0.32728551 0.56993888 -0.00702577
H  -0.15535667 1.52732939 0.03924454
H  1.40693381 0.61409289 0.03932788
6
MD Step 48
C  -0.32959233 -0.56811390 -0.00663593
H  0.15800760 -1.51915299 0.04237782
H  -1.38508101 -0.64891660 0.04211543
C  0.32759904 0.57054867 -0.00680551
H  -0.16037996 1.52839274 0.03776605
H  1.41120539 0.61066411 0.03790923
6
MD Step 49
C  -0.32971866 -0.56823810 -0.00634958
H  0.15677017 -1.52116379 0.04084161
H  -1.38553449 -0.65073170 0.04051862
C  0.32794465 0.57118720 -0.00657012
H  -0.16554554 1.52957072 0.03619745
H  1.41544907 0.60718316 0.03639383
6
MD Step 50
C  -0.32983725 -0.56838941 -0.00604855
H  0.15580238 -1.52337911 0.03921620
H  -1.38654504 -0.65239555 0.03884233
C  0.32832301 0.57185421 -0.00632023
H  -0.17080096 1.53081657 0.03454271
H  1.41958735 0.60367144 0.03478554
6
MD Step 51
C  -0.32995452 -0.56857516 -0.00574050
H  0.15513699 -1.52572920 0.03754372
H  -1.38805211 -0.65385977 0.03712807
C  0.32872799 0.57254287 -0.00606248
H  -0.17605464 1.53212089 0.03284485
H  1.42358514 0.60018880 0.03312802
6
MD Step 52
C  -0.33006285 -0.56878844 -0.00541761
H  0.15471742 -1.52822665 0.03578139
H  -1.39006983 -0.65516322 0.03533326
C  0.32916732 0.57326079 -0.00579004
H  -0.18130182 1.53338788 0.03105943
H  1.42732538 0.59670938 0.03137656
6
MD Step 53
C  -0.33016661 -0.56903362 -0.00508404
H  0.15455055 -1.53081362 0.03395253
H  -1.39253392 -0.65627777 0.03348041
C  0.32963705 0.57400396 -0.00550666
H  -0.18647121 1.53459046 0.02921040
H  1.43076487 0.59327416 0.02955572
6
MD Step 54
C  -0.33026833 -0.56931276 -0.00474147
H  0.15462661 -1.53344381 0.03206682
H  -1.39538441 -0.65718988 0.03157834
C  0.33013501 0.57477041 -0.00521395
H  -0.19150715 1.53568999 0.02730778
H  1.43385354 0.58991014 0.02767613
6
MD Step 55
C  -0.33036846 -0.56962545 -0.00438902
H  0.15491928 -1.53608388 0.03011993
H  -1.39856785 -0.65790127 0.02962181
C  0.33066090 0.57556021 -0.00491131
H  -0.19637070 1.53663673 0.02534723
H  1.43653455 0.58662972 0.02573399
6
MD Step 56
C  -0.33046743 -0.56997080 -0.00402543
H  0.15539840 -1.53870200 0.02810568
H  -1.40202660 -0.65841658 0.02760369
C  0.33121422 0.57637333 -0.00459787
H  -0.20102789 1.53738301 0.02332252
H  1.43875742 0.58344284 0.02372366
6
MD Step 57
C  -0.33057081 -0.57035250 -0.00365468
H  0.15606117 -1.54123770 0.02604644
H  -1.40566955 -0.65871228 0.02554515
C  0.33178914 0.57720439 -0.00427733
H  -0.20541902 1.53791499 0.02125707
H  1.44050965 0.58038761 0.02166935
6
MD Step 58
C  -0.33067522 -0.57076513 -0.00327131
H  0.15685160 -1.54368449 0.02391292
H  -1.40945591 -0.65881910 0.02341604
C  0.33238812 0.57805643 -0.00394513
H  -0.20954135 1.53817129 0.01912083
H  1.44173478 0.57744893 0.01954150
6
MD Step 59
C  -0.33078668 -0.57121208 -0.00287970
H  0.15776769 -1.54598287 0.02172987
H  -1.41328893 -0.65871375 0.02124001
C  0.33300398 0.57892269 -0.00360537
H  -0.21334122 1.53815135 0.01693962
H  1.44244101 0.57466540 0.01736668
6
MD Step 60
C  -0.33090559 -0.57169095 -0.00247850
H  0.15877557 -1.54810817 0.01949058
H  -1.41710484 -0.65840658 0.01900954
C  0.33363447 0.57980133 -0.00325710
H  -0.21680187 1.53782851 0.01470673
H  1.44261372 0.57204266 0.01513871
6
MD Step 61
C  -0.33103610 -0.57220273 -0.00207051
H  0.15986468 -1.55001588 0.01721119
H  -1.42081908 -0.65788609 0.01673993
C  0.33427304 0.58068611 -0.00290304
H  -0.21988818 1.53720561 0.01243893
H  1.44227103 0.56960816 0.01287492
6
MD Step 62
C  -0.33117866 -0.57274457 -0.00165500
H  0.16100532 -1.55168539 0.01488821
H  -1.42437093 -0.65716238 0.01442713
C  0.33491611 0.58157367 -0.00254272
H  -0.22259019 1.53627184 0.01013268
H  1.44142021 0.56736820 0.01057217
6
MD Step 63
C  -0.33133675 -0.57331639 -0.00123476
H  0.16218847 -1.55308068 0.01253762
H  -1.42768489 -0.65622719 0.01208662
C  0.33555646 0.58245684 -0.00217878
H  -0.22488329 1.53504265 0.00780440
H  1.44009749 0.56534730 0.00824727
6
MD Step 64
C  -0.33150810 -0.57391234 -0.00080703
H  0.16337530 -1.55420177 0.01014465
H  -1.43072288 -0.65510525 0.00970339
C  0.33619178 0.58333336 -0.00180890
H  -0.22677970 1.53350855 0.00543861
H  1.43831638 0.56353736 0.00588487
6
MD Step 65
C  -0.33170235 -0.57453813 -0.00038182
H  0.16460053 -1.55498124 0.00776580
H  -1.43338117 -0.65374999 0.00733365
C  0.33680751 0.58418828 -0.00144224
H  -0.22822420 1.53173892 0.00309309
H  1.43617153 0.56200079 0.00354299
6
MD Step 66
C  -0.33192133 -0.57519176 0.00003838
H  0.16585818 -1.55539987 0.00541542
H  -1.43560690 -0.65215934 0.00499174
C  0.33739603 0.58501359 -0.00108110
H  -0.22920983 1.52976631 0.00078209
H  1.43372181 0.56075571 0.00123588
6
MD Step 67
C  -0.33215834 -0.57586284 0.00045934
H  0.16709729 -1.55549125 0.00306124
H  -1.43740319 -0.65038021 0.00264558
C  0.33795752 0.58580897 -0.00072019
H  -0.22978228 1.52758163 -0.00152814
H  1.43098501 0.55977151 -0.00107043
6
MD Step 68
C  -0.33240938 -0.57654360 0.00088358
H  0.16828762 -1.55527565 0.00068935
H  -1.43876294 -0.64844199 0.00028156
C  0.33848902 0.58657068 -0.00035715
H  -0.22997350 1.52520011 -0.00385263
H  1.42800370 0.55903451 -0.00339124
6
MD Step 69
C  -0.33267345 -0.57722927 0.00131003
H  0.16942147 -1.55475801 -0.00169401
H  -1.43966700 -0.64635459 -0.00209380
C  0.33898419 0.58729135 0.00000713
H  -0.22979978 1.52266276 -0.00618600
H  1.42484632 0.55854982 -0.00572153
6
MD Step 70
C  -0.33295681 -0.57792233 0.00172975
H  0.17053854 -1.55390288 -0.00403788
H  -1.44005935 -0.64408333 -0.00442913
C  0.33942928 0.58795581 0.00036448
H  -0.22923635 1.52006079 -0.00847715
H  1.42163101 0.55836616 -0.00801066
6
MD Step 71
C  -0.33325025 -0.57861011 0.00214913
H  0.17159295 -1.55276827 -0.00637870
H  -1.43998153 -0.64168318 -0.00676042
C  0.33982548 0.58856375 0.00072106
H  -0.22835127 1.51740087 -0.01076456
H  1.41838927 0.55844267 -0.01029760
6
MD Step 72
C  -0.33355269 -0.57928812 0.00256587
H  0.17259110 -1.55136642 -0.00870332
H  -1.43943340 -0.63915935 -0.00907405
C  0.34016596 0.58910644 0.00107497
H  -0.22716577 1.51474333 -0.01303613
H  1.41520411 0.55878709 -0.01257086
6
MD Step 73
C  -0.33385764 -0.57994677 0.00298276
H  0.17351241 -1.54974312 -0.01102771
H  -1.43845259 -0.63654708 -0.01138559
C  0.34044921 0.58958019 0.00142908
H  -0.22573359 1.51212161 -0.01530964
H  1.41212846 0.55937656 -0.01484868
6
MD Step 74
C  -0.33416458 -0.58058258 0.00339621
H  0.17437531 -1.54791074 -0.01333130
H  -1.43704763 -0.63384476 -0.01367394
C  0.34066808 0.58997529 0.00178028
H  -0.22407372 1.50960775 -0.01756568
H  1.40925025 0.56022393 -0.01711230
6
MD Step 75
C  -0.33446933 -0.58118876 0.00380602
H  0.17518068 -1.54590444 -0.01561297
H  -1.43525439 -0.63107068 -0.01593761
C  0.34081930 0.59028568 0.00212868
H  -0.22222639 1.50725455 -0.01980476
H  1.40663357 0.56132139 -0.01936271
6
MD Step 76
C  -0.33477132 -0.58176247 0.00420806
H  0.17595435 -1.54373879 -0.01784870
H  -1.43309280 -0.62821993 -0.01815207
C  0.34089653 0.59050182 0.00247056
H  -0.22020933 1.50513715 -0.02200412
H  1.40435966 0.56268327 -0.02157771
6
MD Step 77
C  -0.33506541 -0.58229672 0.00460258
H  0.17669819 -1.54145618 -0.02003993
H  -1.43061549 -0.62531330 -0.02031860
C  0.34089851 0.59061908 0.00280644
H  -0.21806581 1.50330269 -0.02416691
H  1.40247579 0.56429737 -0.02376063
6
MD Step 78
C  -0.33535054 -0.58278901 0.00498554
H  0.17744084 -1.53907486 -0.02216282
H  -1.42785577 -0.62234582 -0.02241298
C  0.34082067 0.59062923 0.00313256
H  -0.21581239 1.50182020 -0.02627048
H  1.40104504 0.56617615 -0.02588918
6
MD Step 79
C  -0.33561921 -0.58323094 0.00535912
H  0.17817517 -1.53665093 -0.02423026
H  -1.42488966 -0.61934932 -0.02444839
C  0.34066563 0.59053114 0.00345130
H  -0.21350062 1.50071656 -0.02832927
H  1.40008187 0.56829439 -0.02797738
6
MD Step 80
C  -0.33586556 -0.58361625 0.00572383
H  0.17890477 -1.53423034 -0.02624509
H  -1.42178749 -0.61634509 -0.02642808
C  0.34043529 0.59032292 0.00376333
H  -0.21116897 1.50002233 -0.03034736
H  1.39959861 0.57063627 -0.03002873
6
MD Step 81
C  -0.33608400 -0.58393944 0.00607985
H  0.17963533 -1.53185639 -0.02820837
H  -1.41862088 -0.61335204 -0.02835366
C  0.34013225 0.59000346 0.00406892
H  -0.20885035 1.49976233 -0.03232668
H  1.39959673 0.57318707 -0.03204439
6
MD Step 82
C  -0.33626556 -0.58419220 0.00643074
H  0.18035191 -1.52959126 -0.03014153
H  -1.41548361 -0.61040899 -0.03024798
C  0.33976348 0.58957631 0.00437185
H  -0.20659387 1.49993219 -0.03428951
H  1.40004436 0.57591088 -0.03404494
6
MD Step 83
C  -0.33641399 -0.58437927 0.00676796
H  0.18111267 -1.52742061 -0.03199250
H  -1.41239529 -0.60747991 -0.03205857
C  0.33932442 0.58903380 0.00466307
H  -0.20436976 1.50059214 -0.03618336
H  1.40097162 0.57884492 -0.03597803
6
MD Step 84
C  -0.33652674 -0.58449967 0.00708934
H  0.18193641 -1.52536575 -0.03374749
H  -1.40941316 -0.60456671 -0.03377231
C  0.33881783 0.58837612 0.00494004
H  -0.20218155 1.50175361 -0.03799404
H  1.40235767 0.58198706 -0.03782854
6
MD Step 85
C  -0.33659548 -0.58454708 0.00739857
H  0.18280429 -1.52348100 -0.03542890
H  -1.40662860 -0.60170713 -0.03541369
C  0.33825329 0.58761096 0.00520648
H  -0.20006383 1.50338096 -0.03974345
H  1.40413361 0.58529789 -0.03961605
6
MD Step 86
C  -0.33661970 -0.58452332 0.00769235
H  0.18373926 -1.52177287 -0.03701569
H  -1.40408496 -0.59889449 -0.03696241
C  0.33763374 0.58674008 0.00545838
H  -0.19800230 1.50547180 -0.04140914
H  1.40626459 0.58878057 -0.04131728
6
MD Step 87
C  -0.33659428 -0.58442594 0.00797227
H  0.18473169 -1.52027409 -0.03851732
H  -1.40185052 -0.59615213 -0.03842987
C  0.33696776 0.58577176 0.00569707
H  -0.19600832 1.50798287 -0.04299897
H  1.40867671 0.59240657 -0.04293809
6
MD Step 88
C  -0.33651845 -0.58425702 0.00823646
H  0.18579133 -1.51899071 -0.03992159
H  -1.39996441 -0.59348099 -0.03980498
C  0.33626069 0.58471191 0.00591995
H  -0.19406709 1.51088329 -0.04449855
H  1.41131159 0.59616797 -0.04446309
6
MD Step 89
C  -0.33638760 -0.58401493 0.00848737
H  0.18689818 -1.51795112 -0.04124361
H  -1.39848437 -0.59090883 -0.04110507
C  0.33552276 0.58357227 0.00612926
H  -0.19218739 1.51410632 -0.04592058
H  1.41407895 0.60002838 -0.04590295
6
MD Step 90
C  -0.33620000 -0.58370094 0.00872553
H  0.18804152 -1.51716649 -0.04248664
H  -1.39744600 -0.58845082 -0.04233508
C  0.33476238 0.58236367 0.00632512
H  -0.19036302 1.51759003 -0.04726555
H  1.41689822 0.60396224 -0.04725671
6
MD Step 91
C  -0.33595731 -0.58331963 0.00894922
H  0.18922248 -1.51662822 -0.04363948
H  -1.39685913 -0.58610713 -0.04348460
C  0.33398557 0.58109545 0.00650502
H  -0.18857119 1.52128125 -0.04851927
H  1.41970307 0.60795750 -0.04850977
6
MD Step 92
C  -0.33565930 -0.58287355 0.00915927
H  0.19042278 -1.51633953 -0.04470789
H  -1.39673884 -0.58389428 -0.04456092
C  0.33320119 0.57978056 0.00666957
H  -0.18680459 1.52510569 -0.04968445
H  1.42241157 0.61198432 -0.04966363
6
MD Step 93
C  -0.33531791 -0.58237724 0.00934637
H  0.19168833 -1.51623220 -0.04563098
H  -1.39702173 -0.58176173 -0.04550079
C  0.33240679 0.57842141 0.00680719
H  -0.18498898 1.52905303 -0.05069734
H  1.42501136 0.61607875 -0.05065728
6
MD Step 94
C  -0.33492861 -0.58182851 0.00951702
H  0.19295964 -1.51633758 -0.04645160
H  -1.39773751 -0.57976202 -0.04634967
C  0.33161721 0.57703825 0.00692528
H  -0.18315359 1.53300798 -0.05159763
H  1.42739012 0.62017254 -0.05152807
6
MD Step 95
C  -0.33449233 -0.58123035 0.00967350
H  0.19420263 -1.51665594 -0.04718547
H  -1.39887788 -0.57792001 -0.04712424
C  0.33084249 0.57564702 0.00702634
H  -0.18130144 1.53688284 -0.05239810
H  1.42946821 0.62422424 -0.05228797
6
MD Step 96
C  -0.33401413 -0.58058960 0.00981510
H  0.19540124 -1.51716462 -0.04782887
H  -1.40040473 -0.57624053 -0.04782037
C  0.33008908 0.57426049 0.00710940
H  -0.17941776 1.54061132 -0.05309244
H  1.43119228 0.62821178 -0.05293119
6
MD Step 97
C  -0.33349872 -0.57991242 0.00994215
H  0.19653159 -1.51784488 -0.04838500
H  -1.40227762 -0.57473460 -0.04844089
C  0.32936418 0.57289243 0.00717483
H  -0.17749668 1.54412355 -0.05368156
H  1.43250997 0.63210636 -0.05345898
6
MD Step 98
C  -0.33295195 -0.57920584 0.01005449
H  0.19757221 -1.51867270 -0.04885416
H  -1.40444532 -0.57340952 -0.04898530
C  0.32867406 0.57155585 0.00722254
H  -0.17553184 1.54735711 -0.05416381
H  1.43338040 0.63588260 -0.05387033
6
MD Step 99
C  -0.33238377 -0.57848073 0.01014879
H  0.19852280 -1.51960118 -0.04921532
H  -1.40682916 -0.57225069 -0.04943037
C  0.32802091 0.57025975 0.00724860
H  -0.17349861 1.55027631 -0.05451706
H  1.43379297 0.63953704 -0.05414505
6
MD Step 100
C  -0.33180200 -0.57774562 0.01022399
H  0.19936846 -1.52059753 -0.04946257
H  -1.40936126 -0.57125762 -0.04976860
C  0.32740890 0.56901505 0.00725191
H  -0.17139026 1.55283678 -0.05473453
H  1.43373138 0.64305205 -0.05427762
6
MD Step 101
C  -0.33121508 -0.57700947 0.01027865
H  0.20009761 -1.52162637 -0.04958764
H  -1.41196905 -0.57042652 -0.04998983
C  0.32684123 0.56783157 0.00723103
H  -0.16920081 1.55500353 -0.05480756
H  1.43319118 0.64641352 -0.05426088
6
MD Step 102
C  -0.33063111 -0.57628072 0.01031176
H  0.20069732 -1.52265547 -0.04958501
H  -1.41458204 -0.56975537 -0.05008668
C  0.32632095 0.56671868 0.00718510
H  -0.16693014 1.55674650 -0.05473063
H  1.43217482 0.64960591 -0.05409075
6
MD Step 103
C  -0.33005847 -0.57556801 0.01032201
H  0.20115849 -1.52365153 -0.04944704
H  -1.41712866 -0.56923901 -0.05004955
C  0.32585010 0.56568446 0.00711290
H  -0.16457918 1.55804582 -0.05449665
H  1.43069647 0.65261731 -0.05376169
6
MD Step 104
C  -0.32950408 -0.57487837 0.01030930
H  0.20146629 -1.52459069 -0.04917403
H  -1.41954773 -0.56887907 -0.04987708
C  0.32543135 0.56473724 0.00701475
H  -0.16215982 1.55888218 -0.05410668
H  1.42877207 0.65542961 -0.05327606
6
MD Step 105
C  -0.32897093 -0.57421477 0.01027675
H  0.20158612 -1.52547318 -0.04878883
H  -1.42180385 -0.56869795 -0.04959140
C  0.32507042 0.56388782 0.00689519
H  -0.15970879 1.55922298 -0.05358378
H  1.42640511 0.65800437 -0.05265732
6
MD Step 106
C  -0.32846684 -0.57358503 0.01022290
H  0.20151768 -1.52626999 -0.04828217
H  -1.42383447 -0.56868563 -0.04918135
C  0.32476688 0.56314049 0.00675287
H  -0.15723456 1.55907608 -0.05292053
H  1.42364015 0.66033692 -0.05189973
6
MD Step 107
C  -0.32799509 -0.57299227 0.01015000
H  0.20123833 -1.52697978 -0.04767036
H  -1.42560749 -0.56885571 -0.04866235
C  0.32452381 0.56250240 0.00659119
H  -0.15477315 1.55843344 -0.05213436
H  1.42050614 0.66239963 -0.05102144
6
MD Step 108
C  -0.32756097 -0.57244161 0.01005800
H  0.20074383 -1.52758872 -0.04695411
H  -1.42708140 -0.56920541 -0.04803390
C  0.32434087 0.56197672 0.00641077
H  -0.15234801 1.55731145 -0.05122798
H  1.41705639 0.66418261 -0.05002634
6
MD Step 109
C  -0.32717536 -0.57194392 0.00994143
H  0.20007077 -1.52804851 -0.04609577
H  -1.42818364 -0.56969358 -0.04725606
C  0.32421051 0.56155900 0.00620514
H  -0.14994790 1.55577291 -0.05016790
H  1.41339006 0.66571620 -0.04888324
6
MD Step 110
C  -0.32683326 -0.57149370 0.00980849
H  0.19916585 -1.52840687 -0.04515227
H  -1.42894209 -0.57036973 -0.04638643
C  0.32414026 0.56125874 0.00598522
H  -0.14765521 1.55379676 -0.04901107
H  1.40952134 0.66693990 -0.04764857
6
MD Step 111
C  -0.32654433 -0.57110051 0.00965360
H  0.19807260 -1.52862164 -0.04408544
H  -1.42929848 -0.57118997 -0.04538515
C  0.32412104 0.56106855 0.00574457
H  -0.14546212 1.55146332 -0.04772389
H  1.40556409 0.66788944 -0.04629056
6
MD Step 112
C  -0.32631160 -0.57076711 0.00947657
H  0.19680157 -1.52869009 -0.04289377
H  -1.42923861 -0.57214503 -0.04425014
C  0.32414925 0.56098564 0.00548341
H  -0.14339782 1.54882470 -0.04630798
H  1.40160155 0.66856671 -0.04481164
6
MD Step 113
C  -0.32613164 -0.57048960 0.00928239
H  0.19533148 -1.52864774 -0.04161133
H  -1.42879137 -0.57325905 -0.04301591
C  0.32422670 0.56101166 0.00520844
H  -0.14152686 1.54590527 -0.04479882
H  1.39768607 0.66894092 -0.04324707
6
MD Step 114
C  -0.32601306 -0.57027652 0.00906447
H  0.19372216 -1.52845569 -0.04019277
H  -1.42791571 -0.57447837 -0.04163617
C  0.32434148 0.56113416 0.00491193
H  -0.13983760 1.54281313 -0.04315631
H  1.39394970 0.66906166 -0.04155792
6
MD Step 115
C  -0.32595116 -0.57012279 0.00882767
H  0.19195967 -1.52815457 -0.03867055
H  -1.42665542 -0.57582399 -0.04014407
C  0.32449438 0.56135222 0.00460019
H  -0.13839368 1.53958522 -0.04141447
H  1.39044846 0.66890377 -0.03977773
6
MD Step 116
C  -0.32594614 -0.57002843 0.00857173
H  0.19006724 -1.52775369 -0.03704206
H  -1.42502791 -0.57728218 -0.03853730
C  0.32468013 0.56165827 0.00427315
H  -0.13722418 1.53629645 -0.03957379
H  1.38727065 0.66847851 -0.03790686
6
MD Step 117
C  -0.32599406 -0.56998933 0.00829950
H  0.18804968 -1.52728572 -0.03532573
H  -1.42307909 -0.57885901 -0.03683510
C  0.32489695 0.56204738 0.00393448
H  -0.13637723 1.53300334 -0.03765469
H  1.38447985 0.66777791 -0.03596505
6
MD Step 118
C  -0.32609299 -0.57000356 0.00801141
H  0.18593033 -1.52676925 -0.03352330
H  -1.42084563 -0.58054378 -0.03503988
C  0.32514034 0.56251127 0.00358478
H  -0.13588271 1.52977942 -0.03566140
H  1.38214980 0.66681195 -0.03395589
6
MD Step 119
C  -0.32623748 -0.57006573 0.00771049
H  0.18371676 -1.52624210 -0.03165424
H  -1.41838832 -0.58234248 -0.03317220
C  0.32540899 0.56304414 0.00322776
H  -0.13578477 1.52667977 -0.03361479
H  1.38032860 0.66557432 -0.03189916
6
MD Step 120
C  -0.32643392 -0.57018278 0.00738815
H  0.18149378 -1.52566792 -0.02966114
H  -1.41569809 -0.58418582 -0.03117501
C  0.32568905 0.56362742 0.00285341
H  -0.13604905 1.52383193 -0.03146152
H  1.37912931 0.66413567 -0.02974112
6
MD Step 121
C  -0.32667729 -0.57035015 0.00704595
H  0.17928130 -1.52507715 -0.02755331
H  -1.41283768 -0.58606937 -0.02905877
C  0.32597836 0.56425353 0.00246351
H  -0.13670143 1.52129272 -0.02921201
H  1.37858630 0.66250135 -0.02749095
6
MD Step 122
C  -0.32695960 -0.57056051 0.00668773
H  0.17708533 -1.52451535 -0.02535468
H  -1.40988940 -0.58800302 -0.02684875
C  0.32627784 0.56491755 0.00206228
H  -0.13777663 1.51909738 -0.02689047
H  1.37870463 0.66066270 -0.02517149
6
MD Step 123
C  -0.32726722 -0.57080096 0.00632231
H  0.17488022 -1.52405953 -0.02312126
H  -1.40697077 -0.59002802 -0.02460252
C  0.32659440 0.56562028 0.00165951
H  -0.13933453 1.51724091 -0.02455180
H  1.37944241 0.65857977 -0.02283599
6
MD Step 124
C  -0.32759842 -0.57107096 0.00594692
H  0.17271380 -1.52371196 -0.02083441
H  -1.40412675 -0.59211240 -0.02230236
C  0.32692301 0.56635086 0.00125186
H  -0.14135521 1.51578206 -0.02217821
H  1.38081644 0.65628713 -0.02046581
6
MD Step 125
C  -0.32794812 -0.57136668 0.00556182
H  0.17061369 -1.52349243 -0.01849500
H  -1.40142162 -0.59424328 -0.01995009
C  0.32726243 0.56710233 0.00083934
H  -0.14383056 1.51474933 -0.01977049
H  1.38280919 0.65380054 -0.01806083
6