 Entering Gaussian System, Link 0=g16
 Initial command:
 /software/gaussian/g16-c01/avx2/g16/l1.exe "/gpfs/fs2/scratch/bweight/software/many_molecule_many_mode_NAMD/src/NAMD/TEST_NVT/TRAJ/traj-46/G16/GS_NEW/Gau-20380.inp" -scrdir="/gpfs/fs2/scratch/bweight/software/many_molecule_many_mode_NAMD/src/NAMD/TEST_NVT/TRAJ/traj-46/G16/GS_NEW/"
 Entering Link 1 = /software/gaussian/g16-c01/avx2/g16/l1.exe PID=     20381.
  
 Copyright (c) 1988-2019, Gaussian, Inc.  All Rights Reserved.
  
 This is part of the Gaussian(R) 16 program.  It is based on
 the Gaussian(R) 09 system (copyright 2009, Gaussian, Inc.),
 the Gaussian(R) 03 system (copyright 2003, Gaussian, Inc.),
 the Gaussian(R) 98 system (copyright 1998, Gaussian, Inc.),
 the Gaussian(R) 94 system (copyright 1995, Gaussian, Inc.),
 the Gaussian 92(TM) system (copyright 1992, Gaussian, Inc.),
 the Gaussian 90(TM) system (copyright 1990, Gaussian, Inc.),
 the Gaussian 88(TM) system (copyright 1988, Gaussian, Inc.),
 the Gaussian 86(TM) system (copyright 1986, Carnegie Mellon
 University), and the Gaussian 82(TM) system (copyright 1983,
 Carnegie Mellon University). Gaussian is a federally registered
 trademark of Gaussian, Inc.
  
 This software contains proprietary and confidential information,
 including trade secrets, belonging to Gaussian, Inc.
  
 This software is provided under written license and may be
 used, copied, transmitted, or stored only in accord with that
 written license.
  
 The following legend is applicable only to US Government
 contracts under FAR:
  
                    RESTRICTED RIGHTS LEGEND
  
 Use, reproduction and disclosure by the US Government is
 subject to restrictions as set forth in subparagraphs (a)
 and (c) of the Commercial Computer Software - Restricted
 Rights clause in FAR 52.227-19.
  
 Gaussian, Inc.
 340 Quinnipiac St., Bldg. 40, Wallingford CT 06492
  
  
 ---------------------------------------------------------------
 Warning -- This program may not be used in any manner that
 competes with the business of Gaussian, Inc. or will provide
 assistance to any competitor of Gaussian, Inc.  The licensee
 of this program is prohibited from giving any competitor of
 Gaussian, Inc. access to this program.  By using this program,
 the user acknowledges that Gaussian, Inc. is engaged in the
 business of creating and licensing software in the field of
 computational chemistry and represents and warrants to the
 licensee that it is not a competitor of Gaussian, Inc. and that
 it will not use this program in any manner prohibited above.
 ---------------------------------------------------------------
  

 Cite this work as:
 Gaussian 16, Revision C.01,
 M. J. Frisch, G. W. Trucks, H. B. Schlegel, G. E. Scuseria, 
 M. A. Robb, J. R. Cheeseman, G. Scalmani, V. Barone, 
 G. A. Petersson, H. Nakatsuji, X. Li, M. Caricato, A. V. Marenich, 
 J. Bloino, B. G. Janesko, R. Gomperts, B. Mennucci, H. P. Hratchian, 
 J. V. Ortiz, A. F. Izmaylov, J. L. Sonnenberg, D. Williams-Young, 
 F. Ding, F. Lipparini, F. Egidi, J. Goings, B. Peng, A. Petrone, 
 T. Henderson, D. Ranasinghe, V. G. Zakrzewski, J. Gao, N. Rega, 
 G. Zheng, W. Liang, M. Hada, M. Ehara, K. Toyota, R. Fukuda, 
 J. Hasegawa, M. Ishida, T. Nakajima, Y. Honda, O. Kitao, H. Nakai, 
 T. Vreven, K. Throssell, J. A. Montgomery, Jr., J. E. Peralta, 
 F. Ogliaro, M. J. Bearpark, J. J. Heyd, E. N. Brothers, K. N. Kudin, 
 V. N. Staroverov, T. A. Keith, R. Kobayashi, J. Normand, 
 K. Raghavachari, A. P. Rendell, J. C. Burant, S. S. Iyengar, 
 J. Tomasi, M. Cossi, J. M. Millam, M. Klene, C. Adamo, R. Cammi, 
 J. W. Ochterski, R. L. Martin, K. Morokuma, O. Farkas, 
 J. B. Foresman, and D. J. Fox, Gaussian, Inc., Wallingford CT, 2019.
 
 ******************************************
 Gaussian 16:  ES64L-G16RevC.01  3-Jul-2019
                11-Jan-2023 
 ******************************************
 %oldchk=../GS_OLD/geometry.chk
 %chk=geometry.chk
 %nprocshared=4
 Will use up to    4 processors via shared memory.
 %mem=5GB
 Copying data from "../GS_OLD/geometry.chk" to current chk file "geometry.chk"
 IOpt=  2 FromEx=T IUOpen= 4 IOptOp= 5 NList=   0 IFRang= 0 IUIn= 4 IUOut= 2.
 -------------------------------------------------------
 # WB97XD/6-311G SCF=XQC FORCE nosym pop=full guess=read
 -------------------------------------------------------
 1/10=7,30=1,38=1/1,3;
 2/12=2,15=1,17=6,18=5,40=1/2;
 3/5=4,6=6,11=2,25=1,30=1,71=1,74=-58,116=-2/1,2,3;
 4/5=1/1;
 5/5=2,8=3,13=1,38=6/2,8;
 6/7=3,28=1/1;
 7/29=1,30=1/1,2,3,16;
 1/10=7,30=1/3;
 99//99;
 ------------
 MD Step 1000
 ------------
 Symbolic Z-matrix:
 Charge =  0 Multiplicity = 1
 C                    -0.33661  -0.58209   0.00562 
 H                     0.22527  -1.52761  -0.01656 
 H                    -1.42302  -0.58502  -0.01808 
 C                     0.33293   0.57778   0.00464 
 H                    -0.1539    1.56449  -0.02123 
 H                     1.44209   0.64611  -0.01975 
 

 GradGradGradGradGradGradGradGradGradGradGradGradGradGradGradGradGradGrad
 Berny optimization.
 Initialization pass.
 Trust Radius=3.00D-01 FncErr=1.00D-07 GrdErr=1.00D-07 EigMax=2.50D+02 EigMin=1.00D-04
 Number of steps in this run=      2 maximum allowed number of steps=      2.
 GradGradGradGradGradGradGradGradGradGradGradGradGradGradGradGradGradGrad

                          Input orientation:                          
 ---------------------------------------------------------------------
 Center     Atomic      Atomic             Coordinates (Angstroms)
 Number     Number       Type             X           Y           Z
 ---------------------------------------------------------------------
      1          6           0       -0.336605   -0.582087    0.005622
      2          1           0        0.225266   -1.527614   -0.016563
      3          1           0       -1.423025   -0.585019   -0.018075
      4          6           0        0.332931    0.577781    0.004640
      5          1           0       -0.153896    1.564487   -0.021231
      6          1           0        1.442093    0.646111   -0.019746
 ---------------------------------------------------------------------
                    Distance matrix (angstroms):
                    1          2          3          4          5
     1  C    0.000000
     2  H    1.100096   0.000000
     3  H    1.086682   1.898776   0.000000
     4  C    1.339244   2.108252   2.106181   0.000000
     5  H    2.154504   3.115265   2.496212   1.100572   0.000000
     6  H    2.161685   2.491135   3.118427   1.111533   1.841358
                    6
     6  H    0.000000
 Symmetry turned off by external request.
 Stoichiometry    C2H4
 Framework group  C1[X(C2H4)]
 Deg. of freedom    12
 Full point group                 C1      NOp   1
 Rotational constants (GHZ):         143.2670102          29.6688601          24.5836318
 Standard basis: 6-311G (5D, 7F)
    38 basis functions,    72 primitive gaussians,    38 cartesian basis functions
     8 alpha electrons        8 beta electrons
       nuclear repulsion energy        33.0601361680 Hartrees.
 NAtoms=    6 NActive=    6 NUniq=    6 SFac= 1.00D+00 NAtFMM=   60 NAOKFM=F Big=F
 Integral buffers will be    131072 words long.
 Raffenetti 2 integral format.
 Two-electron integral symmetry is turned off.
 Nuclear repulsion after empirical dispersion term =       33.0592935337 Hartrees.
 One-electron integrals computed using PRISM.
 NBasis=    38 RedAO= T EigKep=  6.45D-03  NBF=    38
 NBsUse=    38 1.00D-06 EigRej= -1.00D+00 NBFU=    38
 Initial guess from the checkpoint file:  "geometry.chk"
 B after Tr=    -0.000318   -0.000482   -0.000583
         Rot=    1.000000    0.000005   -0.000001    0.000005 Ang=   0.00 deg.
 Keep R1 ints in memory in canonical form, NReq=4036876.
 Requested convergence on RMS density matrix=1.00D-08 within  32 cycles.
 Requested convergence on MAX density matrix=1.00D-06.
 Requested convergence on             energy=1.00D-06.
 No special actions if energy rises.
 SCF Done:  E(RwB97XD) =  -78.5557082125     A.U. after    8 cycles
            NFock=  8  Conv=0.57D-08     -V/T= 2.0052
 QCSCF skips out because SCF is already converged.

 **********************************************************************

            Population analysis using the SCF Density.

 **********************************************************************

 Alpha  occ. eigenvalues --  -10.28994 -10.28851  -0.86359  -0.67235  -0.55955
 Alpha  occ. eigenvalues --   -0.50890  -0.43682  -0.35665
 Alpha virt. eigenvalues --    0.07967   0.14088   0.16485   0.17018   0.24075
 Alpha virt. eigenvalues --    0.37225   0.39379   0.39946   0.46448   0.48821
 Alpha virt. eigenvalues --    0.49391   0.59094   0.66581   0.69122   0.77313
 Alpha virt. eigenvalues --    0.77502   0.84408   0.95115   2.23142   2.29090
 Alpha virt. eigenvalues --    2.33232   2.40726   2.67094   2.81806   2.87771
 Alpha virt. eigenvalues --    2.95217   3.14002   3.32034  23.35261  23.70506
     Molecular Orbital Coefficients:
                           1         2         3         4         5
                           O         O         O         O         O
     Eigenvalues --   -10.28994 -10.28851  -0.86359  -0.67235  -0.55955
   1 1   C  1S          0.18129   0.53344  -0.08821   0.06698  -0.00032
   2        2S          0.14939   0.43897  -0.13944   0.10727  -0.00052
   3        2PX         0.00016  -0.00004   0.02598   0.03588   0.13847
   4        2PY         0.00027  -0.00005   0.04642   0.05853  -0.07261
   5        2PZ        -0.00000  -0.00000  -0.00094   0.00137   0.00025
   6        3S          0.00387   0.01409   0.37409  -0.29276   0.00140
   7        3PX        -0.00054   0.00051   0.03451   0.05756   0.21697
   8        3PY        -0.00091   0.00091   0.06120   0.09511  -0.11490
   9        3PZ        -0.00001  -0.00002  -0.00157   0.00246   0.00037
  10        4S          0.00108  -0.01496   0.19190  -0.22654   0.00049
  11        4PX         0.00125  -0.00176   0.00493   0.02313   0.11242
  12        4PY         0.00213  -0.00301   0.00872   0.03944  -0.06040
  13        4PZ         0.00001   0.00006  -0.00056   0.00125   0.00018
  14 2   H  1S         -0.00005  -0.00005   0.05229  -0.08653   0.10198
  15        2S         -0.00028   0.00015   0.05370  -0.10473   0.12930
  16        3S          0.00105   0.00154  -0.00178  -0.01492   0.04175
  17 3   H  1S         -0.00006  -0.00006   0.05373  -0.09055  -0.10614
  18        2S         -0.00028   0.00012   0.05463  -0.10852  -0.13340
  19        3S          0.00109   0.00156  -0.00181  -0.01590  -0.04294
  20 4   C  1S          0.53339  -0.18147  -0.08696  -0.06822  -0.00019
  21        2S          0.43906  -0.14916  -0.13731  -0.10941  -0.00029
  22        2PX        -0.00004  -0.00016  -0.02742   0.03798   0.11709
  23        2PY        -0.00006  -0.00028  -0.04630   0.06822  -0.07486
  24        2PZ        -0.00000   0.00000  -0.00083  -0.00165   0.00025
  25        3S          0.01340  -0.00549   0.36787   0.29903   0.00076
  26        3PX        -0.00010   0.00075  -0.03429   0.06150   0.18332
  27        3PY        -0.00014   0.00129  -0.05797   0.10966  -0.11598
  28        3PZ        -0.00003   0.00000  -0.00144  -0.00294   0.00037
  29        4S         -0.01090   0.01008   0.18901   0.23719  -0.00053
  30        4PX         0.00058  -0.00200  -0.00533   0.02684   0.10080
  31        4PY         0.00097  -0.00351  -0.00903   0.04659  -0.06303
  32        4PZ         0.00005  -0.00002  -0.00058  -0.00149   0.00020
  33 5   H  1S         -0.00007  -0.00003   0.05027   0.09468  -0.09016
  34        2S         -0.00007  -0.00031   0.05130   0.11252  -0.11329
  35        3S          0.00182  -0.00011  -0.00105   0.01694  -0.03628
  36 6   H  1S         -0.00006  -0.00003   0.04903   0.09201   0.08501
  37        2S         -0.00007  -0.00032   0.05055   0.11012   0.10754
  38        3S          0.00177  -0.00013  -0.00107   0.01626   0.03483
                           6         7         8         9        10
                           O         O         O         V         V
     Eigenvalues --    -0.50890  -0.43682  -0.35665   0.07967   0.14088
   1 1   C  1S         -0.00311   0.00030  -0.00070   0.00202  -0.03386
   2        2S         -0.00459   0.00053  -0.00114   0.00335  -0.05433
   3        2PX         0.09347  -0.11061  -0.00260   0.00112  -0.03052
   4        2PY         0.16919   0.06546  -0.00427   0.00170  -0.06559
   5        2PZ         0.00379  -0.00007   0.17943  -0.18918  -0.00186
   6        3S          0.01838  -0.00134   0.00332  -0.01016   0.11848
   7        3PX         0.13552  -0.17666  -0.00368   0.00168  -0.03548
   8        3PY         0.24738   0.10498  -0.00601   0.00254  -0.08108
   9        3PZ         0.00602  -0.00009   0.28842  -0.27808  -0.00298
  10        4S         -0.05575  -0.00388   0.00528  -0.01101   1.23319
  11        4PX         0.06803  -0.10987  -0.00296   0.00965  -0.18632
  12        4PY         0.12577   0.06632  -0.00482   0.01548  -0.38638
  13        4PZ         0.00340  -0.00002   0.26723  -0.69480  -0.01044
  14 2   H  1S         -0.08172  -0.11480   0.00013   0.00310  -0.01825
  15        2S         -0.11361  -0.17741   0.00146   0.00483  -0.04987
  16        3S         -0.04257  -0.08194   0.00092   0.01320  -0.84790
  17 3   H  1S         -0.07880   0.11222   0.00009   0.00312  -0.01361
  18        2S         -0.10885   0.17253   0.00143   0.00496  -0.03827
  19        3S         -0.04040   0.07956   0.00090   0.01308  -0.76792
  20 4   C  1S         -0.00893  -0.00053  -0.00066  -0.00201  -0.03582
  21        2S         -0.01402  -0.00089  -0.00107  -0.00332  -0.05752
  22        2PX        -0.09876   0.12539   0.00246   0.00125   0.04174
  23        2PY        -0.16123  -0.07383   0.00461   0.00242   0.06005
  24        2PZ         0.00405   0.00020   0.17910   0.18949  -0.00225
  25        3S          0.04491   0.00254   0.00319   0.00994   0.12688
  26        3PX        -0.14646   0.20040   0.00343   0.00193   0.05166
  27        3PY        -0.23719  -0.11728   0.00649   0.00372   0.07108
  28        3PZ         0.00641   0.00029   0.28675   0.27798  -0.00341
  29        4S         -0.02546   0.00366   0.00485   0.01179   1.23298
  30        4PX        -0.07677   0.12841   0.00270   0.00955   0.27033
  31        4PY        -0.12284  -0.07397   0.00522   0.01774   0.40955
  32        4PZ         0.00374   0.00016   0.26766   0.69583  -0.01376
  33 5   H  1S         -0.07366  -0.12480   0.00015  -0.00309  -0.01100
  34        2S         -0.10026  -0.19411   0.00164  -0.00521  -0.03596
  35        3S         -0.03743  -0.09111   0.00087  -0.01313  -0.80769
  36 6   H  1S         -0.07973   0.12500   0.00010  -0.00309  -0.01553
  37        2S         -0.10916   0.19542   0.00157  -0.00519  -0.04716
  38        3S         -0.04105   0.09174   0.00083  -0.01332  -0.88721
                          11        12        13        14        15
                           V         V         V         V         V
     Eigenvalues --     0.16485   0.17018   0.24075   0.37225   0.39379
   1 1   C  1S          0.00143  -0.04532  -0.00000   0.00909   0.00179
   2        2S          0.00230  -0.07387  -0.00000   0.01227   0.00300
   3        2PX         0.09800  -0.01953   0.09957  -0.03559  -0.02523
   4        2PY        -0.05310  -0.03668  -0.05716  -0.06533   0.00736
   5        2PZ         0.00016  -0.00489   0.00006  -0.00335  -0.00015
   6        3S         -0.00484   0.16733   0.00020   0.03385  -0.00554
   7        3PX         0.13995  -0.01089   0.10513  -0.04406  -0.11117
   8        3PY        -0.07713  -0.02391  -0.06143  -0.08470   0.04012
   9        3PZ         0.00023  -0.00676   0.00002  -0.00673  -0.00013
  10        4S         -0.06681   1.42376  -0.01218  -2.51145  -0.27334
  11        4PX         0.58988  -0.11646   1.16971  -1.53722  -0.53997
  12        4PY        -0.31095  -0.20094  -0.66369  -2.67738   0.13045
  13        4PZ         0.00108  -0.03206   0.00115  -0.03171  -0.00208
  14 2   H  1S         -0.02899  -0.02587   0.01339  -0.06006   0.07636
  15        2S         -0.08033  -0.01784  -0.02534  -0.67665   0.78853
  16        3S         -1.02325  -0.99488  -1.53739  -0.28273  -0.33786
  17 3   H  1S          0.02849  -0.02538  -0.01582  -0.05339  -0.07475
  18        2S          0.07964  -0.02197   0.01915  -0.62728  -0.73897
  19        3S          1.10908  -1.00510   1.56280  -0.36011   0.23840
  20 4   C  1S          0.00161   0.04266  -0.00005  -0.01985   0.00001
  21        2S          0.00257   0.06943  -0.00010  -0.03266   0.00034
  22        2PX         0.10011  -0.02373  -0.10060  -0.04079  -0.03138
  23        2PY        -0.06171  -0.03790   0.05767  -0.07167   0.01330
  24        2PZ         0.00021   0.00496  -0.00006   0.00254   0.00034
  25        3S         -0.00518  -0.15393   0.00030   0.04401  -0.00818
  26        3PX         0.14392  -0.01910  -0.11441  -0.09372  -0.10649
  27        3PY        -0.08729  -0.02757   0.06429  -0.16671   0.06203
  28        3PZ         0.00029   0.00686  -0.00003   0.00321   0.00075
  29        4S         -0.07415  -1.35454   0.00766   3.23974   0.19165
  30        4PX         0.53044  -0.11930  -1.12386  -1.13296  -0.61233
  31        4PY        -0.33576  -0.20355   0.65711  -1.98386   0.02867
  32        4PZ         0.00131   0.03216  -0.00116   0.02451   0.00255
  33 5   H  1S          0.03104   0.02442   0.00633   0.00721  -0.07918
  34        2S          0.06746   0.02207  -0.03394   0.03066  -0.76573
  35        3S          1.08828   0.95113  -1.53493   0.45188   0.47514
  36 6   H  1S         -0.03121   0.02531  -0.00460   0.00381   0.08908
  37        2S         -0.06796   0.01942   0.03578  -0.00239   0.92119
  38        3S         -0.98896   0.95458   1.51807   0.45515  -0.44362
                          16        17        18        19        20
                           V         V         V         V         V
     Eigenvalues --     0.39946   0.46448   0.48821   0.49391   0.59094
   1 1   C  1S         -0.01886   0.01170   0.04675   0.00009  -0.00044
   2        2S         -0.03299   0.02768   0.07827   0.00034  -0.00079
   3        2PX         0.02705  -0.06065  -0.01314   0.00082   0.00162
   4        2PY         0.05220  -0.10630  -0.01742   0.00103   0.00232
   5        2PZ         0.00032  -0.00027  -0.00270  -0.15207  -0.19240
   6        3S          0.07377  -0.33532  -0.09830  -0.00744  -0.00020
   7        3PX         0.09923  -0.24002   0.03051   0.00067   0.00543
   8        3PY         0.19890  -0.41818   0.06299  -0.00022   0.00779
   9        3PZ        -0.00276  -0.00301  -0.01281  -0.62899  -0.68433
  10        4S          2.76742   0.18189  -3.08957   0.04026   0.05141
  11        4PX         0.27469   0.25521  -0.82339   0.01408   0.01512
  12        4PY         0.56405   0.47000  -1.42018   0.02607   0.02840
  13        4PZ         0.00129   0.00124   0.05992   0.68733   1.23988
  14 2   H  1S         -0.02177  -0.03485   0.07529  -0.00142  -0.00123
  15        2S         -0.48479  -0.33584   0.89775  -0.01208  -0.00908
  16        3S          0.31569   0.08387  -0.64742   0.01709   0.01732
  17 3   H  1S         -0.03574  -0.03650   0.07343  -0.00138  -0.00119
  18        2S         -0.61906  -0.35346   0.86850  -0.01177  -0.00846
  19        3S          0.35290   0.08134  -0.61626   0.01664   0.01688
  20 4   C  1S          0.00019  -0.00201  -0.05095   0.00190   0.00049
  21        2S         -0.00327   0.00427  -0.08856   0.00348   0.00092
  22        2PX         0.00878   0.05565  -0.02694  -0.00015   0.00147
  23        2PY         0.01978   0.09488  -0.04908  -0.00048   0.00297
  24        2PZ        -0.00299  -0.00137  -0.00279  -0.15268   0.19226
  25        3S          0.07697  -0.28881   0.22703  -0.01443  -0.00155
  26        3PX        -0.04543   0.23746  -0.05423  -0.00025   0.00513
  27        3PY        -0.05719   0.41019  -0.09558  -0.00150   0.01033
  28        3PZ        -0.00838  -0.00549  -0.00988  -0.63146   0.68260
  29        4S         -0.97719   0.71410   3.13130  -0.05745  -0.04556
  30        4PX         1.27093  -0.32448  -0.61053   0.00459   0.01685
  31        4PY         2.33693  -0.54079  -1.04663   0.00832   0.02689
  32        4PZ        -0.02633  -0.01328  -0.03274   0.69252  -1.23754
  33 5   H  1S         -0.05002  -0.06310  -0.06506   0.00132   0.00119
  34        2S         -0.87466  -0.64625  -0.82226   0.02108   0.00466
  35        3S         -0.20806   0.25378   0.54553  -0.00230  -0.01711
  36 6   H  1S         -0.03586  -0.06235  -0.06496   0.00134   0.00121
  37        2S         -0.71657  -0.63692  -0.82138   0.02093   0.00477
  38        3S         -0.25587   0.27306   0.56534  -0.00304  -0.01728
                          21        22        23        24        25
                           V         V         V         V         V
     Eigenvalues --     0.66581   0.69122   0.77313   0.77502   0.84408
   1 1   C  1S          0.00103  -0.00056   0.05030   0.07335   0.00081
   2        2S          0.00214  -0.00123   0.10615   0.15637   0.00195
   3        2PX        -0.13725   0.19447  -0.02790   0.11451  -0.00694
   4        2PY         0.07999  -0.11756  -0.04660   0.18466   0.01510
   5        2PZ        -0.00012   0.00020   0.00041   0.00353   0.00011
   6        3S         -0.01743   0.01604  -0.71273  -1.35052  -0.02474
   7        3PX        -0.63137   0.67795  -0.18413   0.44603  -0.22019
   8        3PY         0.36360  -0.41073  -0.30961   0.70687   0.17217
   9        3PZ        -0.00062   0.00074   0.00161   0.01237   0.00028
  10        4S          0.02719  -0.06243   0.70713   2.45121   0.02130
  11        4PX         1.09181  -0.76384   0.20956  -0.78162   4.53603
  12        4PY        -0.62954   0.48151   0.21008  -0.98600  -2.57237
  13        4PZ         0.00078   0.00072   0.00755  -0.03995   0.00516
  14 2   H  1S          0.02518  -0.05832   0.00981   0.03288  -0.02685
  15        2S          0.15221  -0.62260   0.06156   0.09732  -1.57770
  16        3S         -1.06096   1.08818  -0.09130  -1.08312  -1.22936
  17 3   H  1S         -0.02424   0.05767   0.00985   0.03362   0.03089
  18        2S         -0.16838   0.65487   0.10522   0.05361   1.62088
  19        3S          1.05037  -1.04078  -0.05533  -1.25457   1.22646
  20 4   C  1S          0.00122  -0.00019   0.08384   0.03249   0.00053
  21        2S          0.00251  -0.00033   0.17849   0.06833   0.00097
  22        2PX        -0.14714  -0.18915  -0.09643   0.05116   0.01064
  23        2PY         0.08440   0.10415  -0.17622   0.09494   0.00407
  24        2PZ        -0.00012  -0.00020   0.00391  -0.00075  -0.00013
  25        3S         -0.01874  -0.00411  -1.49076  -0.39773   0.00026
  26        3PX        -0.66959  -0.64595  -0.35012   0.27231   0.23611
  27        3PY         0.38765   0.35259  -0.64875   0.50352  -0.08837
  28        3PZ        -0.00061  -0.00069   0.01379  -0.00293  -0.00029
  29        4S          0.01572   0.04220   2.66744   0.16055  -0.03623
  30        4PX         1.27857   0.79796   0.49332  -0.21717  -4.15502
  31        4PY        -0.73669  -0.41967   1.05052  -0.68119   2.39651
  32        4PZ         0.00113  -0.00064  -0.04012   0.01877  -0.00455
  33 5   H  1S         -0.02376  -0.05550   0.03447   0.00346  -0.02412
  34        2S         -0.12937  -0.56408   0.07504   0.08455  -1.42158
  35        3S          1.09925   1.00527  -1.18818   0.29359  -1.09614
  36 6   H  1S          0.02468   0.05567   0.03387   0.00399   0.02297
  37        2S          0.12146   0.53225   0.08750   0.01496   1.39794
  38        3S         -1.10351  -1.03912  -1.08354   0.20243   1.10945
                          26        27        28        29        30
                           V         V         V         V         V
     Eigenvalues --     0.95115   2.23142   2.29090   2.33232   2.40726
   1 1   C  1S          0.09589  -0.00984  -0.01442   0.00046  -0.00051
   2        2S          0.19926   0.00197  -0.01410   0.00091  -0.00066
   3        2PX        -0.09095  -0.07587  -0.13043   0.35036  -0.40781
   4        2PY        -0.15764  -0.14355  -0.23138  -0.19823   0.22843
   5        2PZ         0.00008  -0.00947  -0.01341   0.00026  -0.00073
   6        3S         -1.54535  -0.18666  -0.03979  -0.00060  -0.00444
   7        3PX        -0.23215   0.07136   0.20532  -0.42175   0.56969
   8        3PY        -0.39347   0.14970   0.37858   0.24102  -0.32004
   9        3PZ        -0.00191   0.00942   0.01679  -0.00022   0.00088
  10        4S          5.71355  -0.09720  -0.88043   0.00310  -0.00934
  11        4PX         1.21604   0.05241  -0.18426  -0.06084   0.98978
  12        4PY         1.97923   0.06913  -0.36203   0.02491  -0.53933
  13        4PZ        -0.01324   0.00179   0.00590  -0.00026   0.00172
  14 2   H  1S          0.01542  -0.70329  -0.80312  -0.70924   0.64491
  15        2S         -0.29434   0.99793   1.19936   1.09959  -1.45020
  16        3S         -0.10248  -0.30156  -0.48331  -0.47012   0.36269
  17 3   H  1S          0.01592  -0.69387  -0.79598   0.70638  -0.66695
  18        2S         -0.25454   0.98514   1.19616  -1.09918   1.49742
  19        3S         -0.07503  -0.27927  -0.45870   0.46111  -0.35230
  20 4   C  1S         -0.09389  -0.01071   0.01236   0.00050   0.00036
  21        2S         -0.19472  -0.00046   0.01259   0.00071   0.00067
  22        2PX        -0.09201   0.13732  -0.12269   0.30054   0.41715
  23        2PY        -0.15892   0.23648  -0.20425  -0.17499  -0.24291
  24        2PZ         0.00016  -0.01159   0.01333   0.00039   0.00048
  25        3S          1.50558  -0.16681   0.01697   0.00048   0.00029
  26        3PX        -0.22444  -0.17563   0.21147  -0.37348  -0.58354
  27        3PY        -0.39482  -0.29601   0.34431   0.21432   0.34062
  28        3PZ         0.00262   0.01246  -0.01693  -0.00040  -0.00064
  29        4S         -5.69215  -0.18189   0.89077   0.01443  -0.00328
  30        4PX         1.08719  -0.01343  -0.20236   0.11676  -0.85774
  31        4PY         1.99010  -0.03487  -0.31196  -0.06460   0.51457
  32        4PZ         0.01031   0.00399  -0.00499  -0.00003  -0.00154
  33 5   H  1S         -0.01787  -0.79315   0.66985   0.69850   0.69418
  34        2S          0.28537   1.15408  -1.02617  -1.01019  -1.47458
  35        3S          0.05853  -0.35425   0.39422   0.50497   0.42612
  36 6   H  1S         -0.01768  -0.78948   0.68961  -0.68679  -0.69017
  37        2S          0.31770   1.14613  -1.04749   0.99003   1.45826
  38        3S          0.07773  -0.35923   0.42440  -0.50327  -0.43670
                          31        32        33        34        35
                           V         V         V         V         V
     Eigenvalues --     2.67094   2.81806   2.87771   2.95217   3.14002
   1 1   C  1S          0.00035  -0.00192  -0.01353   0.00007  -0.00975
   2        2S          0.00023  -0.00554  -0.04428  -0.00015  -0.02983
   3        2PX         0.00374  -0.05533  -0.47361  -0.72408   0.44946
   4        2PY         0.00500  -0.09714  -0.86034   0.41144   0.77562
   5        2PZ        -0.92510   0.93365  -0.10480  -0.00114   0.00444
   6        3S         -0.00065   0.04579   0.38675   0.00362   0.25025
   7        3PX        -0.00242   0.09582   0.83700   0.87159  -0.43144
   8        3PY        -0.00287   0.16695   1.49101  -0.48177  -0.73875
   9        3PZ         0.94058  -1.14133   0.13167   0.00153  -0.00557
  10        4S          0.00854  -0.10650  -0.87684  -0.00913  -0.49058
  11        4PX        -0.00181  -0.07673  -0.71252  -0.66988   0.21728
  12        4PY        -0.00288  -0.13474  -1.27143   0.35860   0.36243
  13        4PZ        -0.33858   0.61851  -0.08335  -0.00123   0.00311
  14 2   H  1S          0.00896   0.01524   0.26044  -0.37709  -0.20891
  15        2S         -0.01016  -0.00965  -0.21614   0.39223   0.15769
  16        3S         -0.00220  -0.03114  -0.29948   0.27187   0.05176
  17 3   H  1S          0.00909   0.01485   0.25105   0.37580  -0.21491
  18        2S         -0.01046  -0.00843  -0.19846  -0.38708   0.16315
  19        3S         -0.00258  -0.03138  -0.30079  -0.28884   0.06499
  20 4   C  1S          0.00041   0.00188   0.01359   0.00051  -0.00742
  21        2S          0.00044   0.00582   0.04792   0.00114  -0.02280
  22        2PX        -0.00557  -0.04924  -0.41105  -0.80988  -0.50396
  23        2PY        -0.01094  -0.08754  -0.72058   0.44616  -0.89842
  24        2PZ        -0.92436  -0.93378   0.10892  -0.00008   0.01049
  25        3S         -0.00263  -0.04985  -0.43084  -0.00798   0.19449
  26        3PX         0.00610   0.08959   0.77415   0.96666   0.54202
  27        3PY         0.01168   0.15826   1.35529  -0.52777   0.97647
  28        3PZ         0.93983   1.14138  -0.13693   0.00013  -0.01341
  29        4S          0.01283   0.10842   0.90000   0.02462  -0.36854
  30        4PX        -0.00091  -0.07656  -0.71360  -0.69873  -0.33146
  31        4PY        -0.00224  -0.13361  -1.23903   0.37947  -0.60384
  32        4PZ        -0.33820  -0.61817   0.08717  -0.00015   0.01057
  33 5   H  1S          0.00866  -0.02048  -0.29355   0.41765  -0.26880
  34        2S         -0.01074   0.01642   0.26685  -0.42600   0.21126
  35        3S         -0.00105   0.02910   0.28371  -0.24864   0.13206
  36 6   H  1S          0.00873  -0.02052  -0.29066  -0.43051  -0.25312
  37        2S         -0.01107   0.01711   0.26973   0.43864   0.19832
  38        3S         -0.00073   0.02796   0.27094   0.24800   0.11960
                          36        37        38
                           V         V         V
     Eigenvalues --     3.32034  23.35261  23.70506
   1 1   C  1S         -0.00032  -1.41693  -1.44942
   2        2S         -0.00035   1.51118   1.56736
   3        2PX         0.78877  -0.00655   0.01214
   4        2PY        -0.43824  -0.01064   0.02134
   5        2PZ         0.00116  -0.00040  -0.00017
   6        3S         -0.00260  -0.29704  -0.39857
   7        3PX        -1.12759   0.02382  -0.05553
   8        3PY         0.61965   0.03934  -0.09668
   9        3PZ        -0.00175   0.00112   0.00050
  10        4S          0.00603   0.27653   0.76647
  11        4PX         1.98679  -0.02523   0.13380
  12        4PY        -1.08673  -0.04242   0.22887
  13        4PZ         0.00299  -0.00185  -0.00217
  14 2   H  1S          0.56193   0.01276   0.00693
  15        2S         -0.87741   0.00776  -0.01481
  16        3S         -0.46049  -0.08374  -0.03973
  17 3   H  1S         -0.57416   0.01470   0.00811
  18        2S          0.89512   0.00738  -0.01441
  19        3S          0.49053  -0.08631  -0.03938
  20 4   C  1S          0.00007  -1.44464   1.42164
  21        2S         -0.00023   1.54077  -1.53735
  22        2PX        -0.70499   0.00615   0.01263
  23        2PY         0.40914   0.01116   0.02151
  24        2PZ        -0.00100  -0.00043   0.00012
  25        3S          0.00585  -0.30227   0.39072
  26        3PX         1.00353  -0.02252  -0.05623
  27        3PY        -0.59294  -0.04039  -0.09676
  28        3PZ         0.00152   0.00123  -0.00030
  29        4S         -0.02612   0.27752  -0.75958
  30        4PX        -1.77155   0.02413   0.12972
  31        4PY         1.05864   0.04410   0.22653
  32        4PZ        -0.00265  -0.00201   0.00177
  33 5   H  1S          0.48659   0.01379  -0.00499
  34        2S         -0.75986   0.00806   0.01363
  35        3S         -0.43687  -0.08360   0.03741
  36 6   H  1S         -0.47924   0.01218  -0.00389
  37        2S          0.75057   0.00903   0.01366
  38        3S          0.41954  -0.08133   0.03745
     Density Matrix:
                           1         2         3         4         5
   1 1   C  1S          0.65940
   2        2S          0.56149   0.49196
   3        2PX        -0.00049  -0.00064   0.08423
   4        2PY        -0.00127  -0.00175   0.00367   0.08756
   5        2PZ         0.00007   0.00011  -0.00009  -0.00022   0.06442
   6        3S         -0.08890  -0.15378   0.00253   0.00627  -0.00017
   7        3PX         0.00089   0.00137   0.13045   0.00119  -0.00007
   8        3PY         0.00119   0.00184   0.00124   0.13101  -0.00021
   9        3PZ         0.00013   0.00023  -0.00016  -0.00035   0.10356
  10        4S         -0.07944  -0.11444  -0.01574  -0.02819   0.00049
  11        4PX         0.00024   0.00156   0.07009  -0.00450  -0.00042
  12        4PY         0.00061   0.00301  -0.00458   0.06548  -0.00072
  13        4PZ        -0.00007  -0.00016  -0.00064  -0.00107   0.09593
  14 2   H  1S         -0.02052  -0.03268   0.03487  -0.06277  -0.00084
  15        2S         -0.02293  -0.03668   0.04908  -0.08773  -0.00064
  16        3S          0.00052  -0.00078   0.02056  -0.03311   0.00000
  17 3   H  1S         -0.02107  -0.03353  -0.07266  -0.00217  -0.00098
  18        2S         -0.02328  -0.03718  -0.10042  -0.00252  -0.00080
  19        3S          0.00058  -0.00071  -0.03828   0.00094  -0.00006
  20 4   C  1S          0.00605   0.00975  -0.01083  -0.01881  -0.00033
  21        2S          0.00971   0.01518  -0.01733  -0.03011  -0.00053
  22        2PX         0.01035   0.01655  -0.01249  -0.03213   0.00033
  23        2PY         0.01798   0.02875  -0.03207  -0.04970   0.00068
  24        2PZ        -0.00035  -0.00057  -0.00031  -0.00044   0.06430
  25        3S         -0.02612  -0.03967   0.04860   0.08456   0.00161
  26        3PX         0.01596   0.02474  -0.01833  -0.04596   0.00042
  27        3PY         0.02771   0.04294  -0.04570  -0.07137   0.00090
  28        3PZ        -0.00059  -0.00095  -0.00054  -0.00078   0.10295
  29        4S          0.00538   0.00399   0.02109   0.03721   0.00184
  30        4PX         0.00310   0.00639  -0.01321  -0.02118   0.00050
  31        4PY         0.00519   0.01083  -0.02121  -0.03752   0.00106
  32        4PZ        -0.00050  -0.00081  -0.00081  -0.00126   0.09608
  33 5   H  1S          0.00419   0.00688  -0.00173  -0.01242  -0.00037
  34        2S          0.00625   0.01037   0.00355  -0.02496   0.00001
  35        3S          0.00319   0.00465   0.00427  -0.01745   0.00007
  36 6   H  1S          0.00414   0.00680  -0.00987  -0.00764  -0.00038
  37        2S          0.00620   0.01032  -0.02334  -0.00940  -0.00003
  38        3S          0.00316   0.00464  -0.01721  -0.00514   0.00004
                           6         7         8         9        10
   6        3S          0.45244
   7        3PX        -0.00183   0.20234
   8        3PY        -0.00143  -0.00468   0.19650
   9        3PZ        -0.00048  -0.00013  -0.00032   0.16646
  10        4S          0.27381  -0.02642  -0.04821   0.00066   0.18305
  11        4PX        -0.00680   0.10906  -0.01021  -0.00069  -0.01519
  12        4PY        -0.01240  -0.01038   0.09865  -0.00116  -0.02908
  13        4PZ         0.00075  -0.00086  -0.00141   0.15420   0.00166
  14 2   H  1S          0.08738   0.05631  -0.09803  -0.00140   0.06938
  15        2S          0.09817   0.07964  -0.13654  -0.00108   0.08224
  16        3S          0.00623   0.03368  -0.05093  -0.00001   0.01147
  17 3   H  1S          0.08972  -0.11378  -0.00168  -0.00161   0.06946
  18        2S          0.09959  -0.15708  -0.00094  -0.00132   0.08081
  19        3S          0.00619  -0.05965   0.00333  -0.00009   0.01032
  20 4   C  1S         -0.02644  -0.01692  -0.02940  -0.00056   0.00511
  21        2S         -0.04000  -0.02630  -0.04573  -0.00090   0.00384
  22        2PX        -0.04638  -0.01780  -0.04560   0.00057  -0.01755
  23        2PY        -0.08050  -0.04547  -0.07081   0.00116  -0.03015
  24        2PZ         0.00168  -0.00043  -0.00058   0.10336   0.00187
  25        3S          0.10176   0.07138   0.12442   0.00270   0.00090
  26        3PX        -0.06703  -0.02627  -0.06505   0.00073  -0.02605
  27        3PY        -0.11623  -0.06461  -0.10163   0.00155  -0.04466
  28        3PZ         0.00278  -0.00075  -0.00104   0.16548   0.00309
  29        4S          0.00182   0.03192   0.05653   0.00306  -0.03238
  30        4PX        -0.02262  -0.01974  -0.02977   0.00083  -0.00645
  31        4PY        -0.03859  -0.02981  -0.05413   0.00176  -0.01021
  32        4PZ         0.00236  -0.00114  -0.00173   0.15444   0.00286
  33 5   H  1S         -0.02045  -0.00063  -0.01777  -0.00054  -0.01451
  34        2S         -0.03098   0.00873  -0.03666   0.00008  -0.01869
  35        3S         -0.01192   0.00817  -0.02623   0.00013  -0.00322
  36 6   H  1S         -0.02021  -0.01491  -0.00923  -0.00056  -0.01486
  37        2S         -0.03089  -0.03581  -0.01057   0.00002  -0.01971
  38        3S         -0.01196  -0.02663  -0.00610   0.00008  -0.00386
                          11        12        13        14        15
  11        4PX         0.05982
  12        4PY        -0.00909   0.05107
  13        4PZ        -0.00102  -0.00166   0.14285
  14 2   H  1S          0.03355  -0.05402  -0.00072   0.08096
  15        2S          0.04827  -0.07507  -0.00026   0.10942   0.14991
  16        3S          0.02088  -0.02784   0.00018   0.03668   0.05248
  17 3   H  1S         -0.06290   0.00168  -0.00081  -0.01324  -0.02462
  18        2S         -0.08721   0.00400  -0.00036  -0.02454  -0.04238
  19        3S         -0.03339   0.00428   0.00015  -0.01786  -0.02701
  20 4   C  1S         -0.00318  -0.00582  -0.00049   0.00422   0.00676
  21        2S         -0.00656  -0.01186  -0.00080   0.00698   0.01130
  22        2PX        -0.01319  -0.01986   0.00081   0.00179  -0.00266
  23        2PY        -0.01987  -0.03677   0.00157   0.01139   0.02422
  24        2PZ        -0.00058  -0.00085   0.09575  -0.00041  -0.00015
  25        3S          0.02322   0.04160   0.00234  -0.02105  -0.03404
  26        3PX        -0.02027  -0.02819   0.00109   0.00109  -0.00697
  27        3PY        -0.02812  -0.05364   0.00216   0.01700   0.03634
  28        3PZ        -0.00095  -0.00141   0.15329  -0.00061  -0.00017
  29        4S          0.00836   0.01599   0.00280  -0.01807  -0.02501
  30        4PX        -0.01482  -0.01244   0.00102  -0.00158  -0.00824
  31        4PY        -0.01258  -0.02960   0.00206   0.01520   0.02714
  32        4PZ        -0.00114  -0.00177   0.14308  -0.00034   0.00017
  33 5   H  1S          0.00200  -0.01585  -0.00027   0.01118   0.02327
  34        2S          0.00924  -0.02753   0.00038   0.02374   0.04430
  35        3S          0.00754  -0.01580   0.00025   0.01660   0.02779
  36 6   H  1S         -0.01446  -0.00563  -0.00028  -0.00913  -0.01826
  37        2S         -0.02803  -0.00498   0.00035  -0.01886  -0.03436
  38        3S         -0.01717  -0.00110   0.00022  -0.01018  -0.01774
                          16        17        18        19        20
  16        3S          0.02100
  17 3   H  1S         -0.01803   0.08231
  18        2S         -0.02710   0.10972   0.14835
  19        3S         -0.01269   0.03602   0.05096   0.02013
  20 4   C  1S          0.00374   0.00429   0.00677   0.00373   0.65948
  21        2S          0.00553   0.00709   0.01128   0.00548   0.56158
  22        2PX        -0.00340   0.00903   0.02229   0.01677   0.00119
  23        2PY         0.01771   0.00740   0.00974   0.00572   0.00176
  24        2PZ         0.00002  -0.00040  -0.00010   0.00006   0.00006
  25        3S         -0.01439  -0.02129  -0.03381  -0.01411  -0.08930
  26        3PX        -0.00677   0.01433   0.03504   0.02616  -0.00047
  27        3PY         0.02668   0.00959   0.01200   0.00721  -0.00110
  28        3PZ         0.00006  -0.00059  -0.00009   0.00011   0.00013
  29        4S         -0.00621  -0.01770  -0.02386  -0.00553  -0.08008
  30        4PX        -0.00687   0.01409   0.02773   0.01715  -0.00020
  31        4PY         0.01596   0.00673   0.00695   0.00212  -0.00019
  32        4PZ         0.00021  -0.00034   0.00022   0.00024  -0.00005
  33 5   H  1S          0.01619  -0.00901  -0.01803  -0.00936  -0.02025
  34        2S          0.02735  -0.01858  -0.03374  -0.01682  -0.02220
  35        3S          0.01459  -0.01003  -0.01740  -0.00889   0.00063
  36 6   H  1S         -0.00952   0.01118   0.02320   0.01593  -0.01987
  37        2S         -0.01722   0.02372   0.04413   0.02700  -0.02207
  38        3S         -0.00911   0.01660   0.02765   0.01441   0.00052
                          21        22        23        24        25
  21        2S          0.49209
  22        2PX         0.00171   0.08277
  23        2PY         0.00250   0.00355   0.08773
  24        2PZ         0.00009   0.00011   0.00013   0.06419
  25        3S         -0.15432  -0.00550  -0.00820  -0.00009   0.45398
  26        3PX        -0.00071   0.12868   0.00179   0.00007  -0.00030
  27        3PY        -0.00167   0.00182   0.13155   0.00004   0.00088
  28        3PZ         0.00022   0.00016   0.00021   0.10278  -0.00041
  29        4S         -0.11569   0.01350   0.02265   0.00044   0.27828
  30        4PX        -0.00145   0.07332  -0.00512   0.00036   0.00610
  31        4PY        -0.00221  -0.00499   0.06721   0.00068   0.00982
  32        4PZ        -0.00014   0.00058   0.00106   0.09591   0.00073
  33 5   H  1S         -0.03224  -0.03342   0.06394  -0.00103   0.08622
  34        2S         -0.03546  -0.04966   0.08857  -0.00082   0.09489
  35        3S         -0.00056  -0.02260   0.03337  -0.00010   0.00553
  36 6   H  1S         -0.03168   0.07130   0.00254  -0.00090   0.08470
  37        2S         -0.03530   0.10135   0.00060  -0.00064   0.09441
  38        3S         -0.00071   0.04057  -0.00320  -0.00003   0.00582
                          26        27        28        29        30
  26        3PX         0.20038
  27        3PY        -0.00254   0.19779
  28        3PZ         0.00009   0.00005   0.16456
  29        4S          0.02499   0.04154   0.00052   0.18578
  30        4PX         0.11460  -0.01055   0.00057   0.01543   0.06661
  31        4PY        -0.01039   0.10157   0.00108   0.02443  -0.01021
  32        4PZ         0.00074   0.00136   0.15356   0.00148   0.00088
  33 5   H  1S         -0.05330   0.10007  -0.00170   0.06685  -0.03437
  34        2S         -0.07963   0.13812  -0.00135   0.07659  -0.05180
  35        3S         -0.03670   0.05139  -0.00016   0.00888  -0.02404
  36 6   H  1S          0.11258   0.00328  -0.00151   0.06707   0.06590
  37        2S          0.15981  -0.00069  -0.00109   0.07823   0.09401
  38        3S          0.06364  -0.00642  -0.00006   0.01000   0.03778
                          31        32        33        34        35
  31        4PY         0.05365
  32        4PZ         0.00170   0.14332
  33 5   H  1S          0.05584  -0.00089   0.08124
  34        2S          0.07721  -0.00038   0.11012   0.15172
  35        3S          0.02886   0.00009   0.03790   0.05481   0.02262
  36 6   H  1S         -0.00193  -0.00080  -0.01243  -0.02606  -0.01996
  37        2S         -0.00628  -0.00025  -0.02615  -0.04837  -0.03161
  38        3S         -0.00633   0.00014  -0.02016  -0.03172  -0.01561
                          36        37        38
  36 6   H  1S          0.08015
  37        2S          0.10976   0.15270
  38        3S          0.03829   0.05578   0.02317
    Full Mulliken population analysis:
                           1         2         3         4         5
   1 1   C  1S          0.65940
   2        2S          0.49324   0.49196
   3        2PX         0.00000   0.00000   0.08423
   4        2PY         0.00000   0.00000   0.00000   0.08756
   5        2PZ         0.00000   0.00000   0.00000   0.00000   0.06442
   6        3S         -0.02926  -0.06440   0.00000   0.00000   0.00000
   7        3PX         0.00000   0.00000   0.08207   0.00000   0.00000
   8        3PY         0.00000   0.00000   0.00000   0.08242   0.00000
   9        3PZ         0.00000   0.00000   0.00000   0.00000   0.06515
  10        4S         -0.01222  -0.02142   0.00000   0.00000   0.00000
  11        4PX         0.00000   0.00000   0.01544   0.00000   0.00000
  12        4PY         0.00000   0.00000   0.00000   0.01442   0.00000
  13        4PZ         0.00000   0.00000   0.00000   0.00000   0.02113
  14 2   H  1S         -0.00023  -0.00032   0.00181   0.00550   0.00000
  15        2S         -0.00166  -0.00318   0.00435   0.01308   0.00000
  16        3S          0.00004  -0.00007   0.00070   0.00190  -0.00000
  17 3   H  1S         -0.00025  -0.00036   0.00785   0.00000   0.00000
  18        2S         -0.00174  -0.00333   0.01770   0.00000   0.00000
  19        3S          0.00005  -0.00007   0.00255  -0.00000   0.00000
  20 4   C  1S          0.00000   0.00000  -0.00002  -0.00006   0.00000
  21        2S          0.00000  -0.00000  -0.00002  -0.00005   0.00000
  22        2PX        -0.00002  -0.00002   0.00011   0.00085   0.00000
  23        2PY        -0.00006  -0.00005   0.00085   0.00195   0.00000
  24        2PZ        -0.00000  -0.00000  -0.00000  -0.00000   0.00041
  25        3S         -0.00058  -0.00098   0.00253   0.00762  -0.00000
  26        3PX        -0.00054  -0.00099   0.00019   0.00554   0.00000
  27        3PY        -0.00162  -0.00297   0.00551   0.01070   0.00000
  28        3PZ        -0.00000  -0.00000  -0.00000  -0.00000   0.00608
  29        4S          0.00034   0.00030   0.00096   0.00292  -0.00000
  30        4PX        -0.00018  -0.00045  -0.00071   0.00147   0.00000
  31        4PY        -0.00052  -0.00133   0.00147   0.00098   0.00000
  32        4PZ        -0.00000  -0.00000  -0.00000  -0.00000   0.00903
  33 5   H  1S          0.00000   0.00000  -0.00000  -0.00000   0.00000
  34        2S          0.00001   0.00002   0.00000  -0.00031  -0.00000
  35        3S          0.00007   0.00013   0.00001  -0.00070  -0.00000
  36 6   H  1S          0.00000   0.00000  -0.00000  -0.00000   0.00000
  37        2S          0.00001   0.00002  -0.00024  -0.00007   0.00000
  38        3S          0.00007   0.00013  -0.00056  -0.00012  -0.00000
                           6         7         8         9        10
   6        3S          0.45244
   7        3PX         0.00000   0.20234
   8        3PY         0.00000   0.00000   0.19650
   9        3PZ         0.00000   0.00000   0.00000   0.16646
  10        4S          0.21212   0.00000   0.00000   0.00000   0.18305
  11        4PX         0.00000   0.07127   0.00000   0.00000   0.00000
  12        4PY         0.00000   0.00000   0.06446   0.00000   0.00000
  13        4PZ         0.00000   0.00000   0.00000   0.10076   0.00000
  14 2   H  1S          0.01591   0.01090   0.03192   0.00001   0.01829
  15        2S          0.04112   0.01983   0.05721   0.00001   0.04729
  16        3S          0.00287   0.00401   0.01020   0.00000   0.00864
  17 3   H  1S          0.01694   0.04416   0.00000   0.00001   0.01856
  18        2S          0.04257   0.07719   0.00000   0.00001   0.04696
  19        3S          0.00287   0.01385  -0.00000   0.00000   0.00782
  20 4   C  1S         -0.00059  -0.00057  -0.00172   0.00000   0.00032
  21        2S         -0.00099  -0.00105  -0.00316   0.00000   0.00029
  22        2PX         0.00241   0.00019   0.00550   0.00000   0.00080
  23        2PY         0.00725   0.00549   0.01061   0.00000   0.00237
  24        2PZ         0.00000  -0.00000  -0.00000   0.00611   0.00000
  25        3S          0.02164   0.01335   0.04032  -0.00000   0.00034
  26        3PX         0.01254  -0.00126   0.01854   0.00000   0.00401
  27        3PY         0.03766   0.01842   0.02858   0.00000   0.01192
  28        3PZ         0.00000  -0.00000  -0.00000   0.03518   0.00000
  29        4S          0.00069   0.00492   0.01509  -0.00000  -0.02032
  30        4PX         0.00635  -0.00404   0.00590   0.00000   0.00195
  31        4PY         0.01877   0.00590   0.00130   0.00000   0.00535
  32        4PZ         0.00000  -0.00000  -0.00000   0.04929   0.00000
  33 5   H  1S         -0.00005  -0.00000  -0.00019   0.00000  -0.00078
  34        2S         -0.00119   0.00007  -0.00321  -0.00000  -0.00313
  35        3S         -0.00194   0.00011  -0.00422  -0.00000  -0.00116
  36 6   H  1S         -0.00005  -0.00013  -0.00005   0.00000  -0.00078
  37        2S         -0.00117  -0.00254  -0.00052  -0.00000  -0.00326
  38        3S         -0.00193  -0.00352  -0.00056  -0.00000  -0.00138
                          11        12        13        14        15
  11        4PX         0.05982
  12        4PY         0.00000   0.05107
  13        4PZ         0.00000   0.00000   0.14285
  14 2   H  1S          0.00641   0.01738   0.00001   0.08096
  15        2S          0.01554   0.04068   0.00000   0.07729   0.14991
  16        3S          0.00528   0.01184  -0.00000   0.01371   0.04140
  17 3   H  1S          0.02357  -0.00000   0.00001  -0.00001  -0.00063
  18        2S          0.05487  -0.00001   0.00000  -0.00063  -0.00520
  19        3S          0.01641  -0.00001  -0.00000  -0.00197  -0.00780
  20 4   C  1S         -0.00018  -0.00059   0.00000   0.00000   0.00002
  21        2S         -0.00047  -0.00146   0.00000   0.00000   0.00003
  22        2PX        -0.00071   0.00138   0.00000  -0.00000   0.00000
  23        2PY         0.00138   0.00096   0.00000  -0.00000  -0.00036
  24        2PZ        -0.00000  -0.00000   0.00899   0.00000   0.00000
  25        3S          0.00652   0.02023  -0.00000  -0.00007  -0.00151
  26        3PX        -0.00415   0.00558   0.00000  -0.00000   0.00004
  27        3PY         0.00557   0.00129   0.00000  -0.00023  -0.00358
  28        3PZ        -0.00000  -0.00000   0.04892   0.00000   0.00000
  29        4S          0.00253   0.00839  -0.00000  -0.00106  -0.00450
  30        4PX        -0.00713   0.00315   0.00000   0.00001   0.00016
  31        4PY         0.00319  -0.00558   0.00000  -0.00242  -0.01024
  32        4PZ        -0.00000  -0.00000   0.08976   0.00000  -0.00000
  33 5   H  1S          0.00003  -0.00234   0.00000   0.00000   0.00000
  34        2S          0.00028  -0.00987  -0.00000   0.00000   0.00016
  35        3S          0.00030  -0.00729  -0.00000   0.00023   0.00146
  36 6   H  1S         -0.00175  -0.00047   0.00000  -0.00000  -0.00004
  37        2S         -0.00823  -0.00101  -0.00000  -0.00004  -0.00093
  38        3S         -0.00652  -0.00029  -0.00000  -0.00046  -0.00248
                          16        17        18        19        20
  16        3S          0.02100
  17 3   H  1S         -0.00199   0.08231
  18        2S         -0.00782   0.07750   0.14835
  19        3S         -0.00655   0.01346   0.04020   0.02013
  20 4   C  1S          0.00009   0.00000   0.00002   0.00009   0.65948
  21        2S          0.00016   0.00000   0.00003   0.00016   0.49332
  22        2PX         0.00001  -0.00000  -0.00028  -0.00059   0.00000
  23        2PY        -0.00074  -0.00000  -0.00008  -0.00013   0.00000
  24        2PZ        -0.00000   0.00000   0.00000  -0.00000   0.00000
  25        3S         -0.00249  -0.00007  -0.00150  -0.00244  -0.02940
  26        3PX         0.00006  -0.00016  -0.00290  -0.00366   0.00000
  27        3PY        -0.00447  -0.00007  -0.00066  -0.00067   0.00000
  28        3PZ        -0.00000   0.00000   0.00000  -0.00000   0.00000
  29        4S         -0.00233  -0.00104  -0.00430  -0.00208  -0.01231
  30        4PX         0.00017  -0.00188  -0.00875  -0.00676   0.00000
  31        4PY        -0.00753  -0.00059  -0.00145  -0.00055   0.00000
  32        4PZ        -0.00000   0.00000  -0.00000  -0.00000   0.00000
  33 5   H  1S          0.00023  -0.00000  -0.00004  -0.00042  -0.00022
  34        2S          0.00144  -0.00004  -0.00090  -0.00233  -0.00161
  35        3S          0.00246  -0.00045  -0.00241  -0.00283   0.00005
  36 6   H  1S         -0.00043   0.00000   0.00000   0.00022  -0.00020
  37        2S         -0.00241   0.00000   0.00015   0.00141  -0.00156
  38        3S         -0.00292   0.00023   0.00145   0.00242   0.00004
                          21        22        23        24        25
  21        2S          0.49209
  22        2PX         0.00000   0.08277
  23        2PY         0.00000   0.00000   0.08773
  24        2PZ         0.00000   0.00000   0.00000   0.06419
  25        3S         -0.06463   0.00000   0.00000   0.00000   0.45398
  26        3PX         0.00000   0.08096   0.00000   0.00000   0.00000
  27        3PY         0.00000   0.00000   0.08276   0.00000   0.00000
  28        3PZ         0.00000   0.00000   0.00000   0.06466   0.00000
  29        4S         -0.02165   0.00000   0.00000   0.00000   0.21558
  30        4PX         0.00000   0.01615   0.00000   0.00000   0.00000
  31        4PY         0.00000   0.00000   0.01480   0.00000   0.00000
  32        4PZ         0.00000   0.00000   0.00000   0.02112   0.00000
  33 5   H  1S         -0.00032   0.00150   0.00583   0.00000   0.01568
  34        2S         -0.00307   0.00381   0.01377   0.00000   0.03972
  35        3S         -0.00005   0.00067   0.00200   0.00000   0.00254
  36 6   H  1S         -0.00029   0.00689   0.00002   0.00000   0.01495
  37        2S         -0.00298   0.01730   0.00001   0.00000   0.03886
  38        3S         -0.00007   0.00271  -0.00001   0.00000   0.00266
                          26        27        28        29        30
  26        3PX         0.20038
  27        3PY         0.00000   0.19779
  28        3PZ         0.00000   0.00000   0.16456
  29        4S          0.00000   0.00000   0.00000   0.18578
  30        4PX         0.07488   0.00000   0.00000   0.00000   0.06661
  31        4PY         0.00000   0.06637   0.00000   0.00000   0.00000
  32        4PZ         0.00000   0.00000   0.10035   0.00000   0.00000
  33 5   H  1S          0.00892   0.03396   0.00002   0.01762   0.00569
  34        2S          0.01717   0.06035   0.00002   0.04402   0.01445
  35        3S          0.00378   0.01073   0.00000   0.00669   0.00526
  36 6   H  1S          0.04167   0.00007   0.00001   0.01747   0.02457
  37        2S          0.07719  -0.00002   0.00001   0.04457   0.05922
  38        3S          0.01483  -0.00009   0.00000   0.00750   0.01874
                          31        32        33        34        35
  31        4PY         0.05365
  32        4PZ         0.00000   0.14332
  33 5   H  1S          0.01874   0.00001   0.08124
  34        2S          0.04364   0.00001   0.07778   0.15172
  35        3S          0.01280  -0.00000   0.01416   0.04324   0.02262
  36 6   H  1S         -0.00004   0.00001  -0.00001  -0.00081  -0.00237
  37        2S         -0.00024   0.00000  -0.00081  -0.00673  -0.00969
  38        3S         -0.00019  -0.00000  -0.00239  -0.00972  -0.00838
                          36        37        38
  36 6   H  1S          0.08015
  37        2S          0.07753   0.15270
  38        3S          0.01431   0.04401   0.02317
     Gross orbital populations:
                           1
   1 1   C  1S          1.10436
   2        2S          0.88586
   3        2PX         0.22678
   4        2PY         0.23560
   5        2PZ         0.16623
   6        3S          0.79256
   7        3PX         0.56094
   8        3PY         0.55492
   9        3PZ         0.42301
  10        4S          0.50566
  11        4PX         0.25925
  12        4PY         0.21192
  13        4PZ         0.41243
  14 2   H  1S          0.27292
  15        2S          0.46748
  16        3S          0.08642
  17 3   H  1S          0.27706
  18        2S          0.46501
  19        3S          0.08278
  20 4   C  1S          1.10440
  21        2S          0.88584
  22        2PX         0.22238
  23        2PY         0.23633
  24        2PZ         0.16550
  25        3S          0.79281
  26        3PX         0.55263
  27        3PY         0.55732
  28        3PZ         0.41981
  29        4S          0.50577
  30        4PX         0.27481
  31        4PY         0.21625
  32        4PZ         0.41288
  33 5   H  1S          0.27383
  34        2S          0.46875
  35        3S          0.08783
  36 6   H  1S          0.27045
  37        2S          0.47057
  38        3S          0.09066
          Condensed to atoms (all electrons):
               1          2          3          4          5          6
     1  C    5.032460   0.387266   0.388209   0.601849  -0.035357  -0.034917
     2  H    0.387266   0.516667  -0.032586  -0.040787   0.005982  -0.009717
     3  H    0.388209  -0.032586   0.513115  -0.040342  -0.009441   0.005893
     4  C    0.601849  -0.040787  -0.040342   5.058238   0.384171   0.383598
     5  H   -0.035357   0.005982  -0.009441   0.384171   0.525959  -0.040902
     6  H   -0.034917  -0.009717   0.005893   0.383598  -0.040902   0.527727
 Mulliken charges:
               1
     1  C   -0.339511
     2  H    0.173176
     3  H    0.175153
     4  C   -0.346726
     5  H    0.169588
     6  H    0.168319
 Sum of Mulliken charges =   0.00000
 Mulliken charges with hydrogens summed into heavy atoms:
               1
     1  C    0.008819
     4  C   -0.008819
 Electronic spatial extent (au):  <R**2>=             83.7415
 Charge=              0.0000 electrons
 Dipole moment (field-independent basis, Debye):
    X=              0.0044    Y=              0.0266    Z=             -0.0798  Tot=              0.0842
 Quadrupole moment (field-independent basis, Debye-Ang):
   XX=            -12.2002   YY=            -12.2193   ZZ=            -15.6749
   XY=              0.0073   XZ=             -0.0007   YZ=             -0.0060
 Traceless Quadrupole moment (field-independent basis, Debye-Ang):
   XX=              1.1646   YY=              1.1455   ZZ=             -2.3101
   XY=              0.0073   XZ=             -0.0007   YZ=             -0.0060
 Octapole moment (field-independent basis, Debye-Ang**2):
  XXX=             -0.3809  YYY=              0.0093  ZZZ=             -0.0707  XYY=              0.2200
  XXY=             -0.0369  XXZ=             -0.1128  XZZ=             -0.0940  YZZ=             -0.0715
  YYZ=             -0.1466  XYZ=             -0.0296
 Hexadecapole moment (field-independent basis, Debye-Ang**3):
 XXXX=            -34.2932 YYYY=            -55.2192 ZZZZ=            -17.8163 XXXY=             -7.2584
 XXXZ=              0.0107 YYYX=            -10.7187 YYYZ=              0.0119 ZZZX=              0.0160
 ZZZY=              0.0338 XXYY=            -16.2011 XXZZ=             -9.9318 YYZZ=            -13.6477
 XXYZ=              0.0066 YYXZ=             -0.0001 ZZXY=             -3.2059
 N-N= 3.305929353367D+01 E-N=-2.478279654174D+02  KE= 7.815070434795D+01
 Orbital energies and kinetic energies (alpha):
                                 1                 2
   1         O               -10.289939         15.977455
   2         O               -10.288510         15.981010
   3         O                -0.863590          1.537122
   4         O                -0.672347          1.271779
   5         O                -0.559547          0.941875
   6         O                -0.508902          1.284013
   7         O                -0.436820          1.044036
   8         O                -0.356652          1.038061
   9         V                 0.079674          1.182188
  10         V                 0.140881          0.589457
  11         V                 0.164847          0.593495
  12         V                 0.170178          0.680136
  13         V                 0.240750          0.582865
  14         V                 0.372250          0.849763
  15         V                 0.393794          0.933772
  16         V                 0.399456          0.786576
  17         V                 0.464485          1.191556
  18         V                 0.488209          1.421941
  19         V                 0.493912          1.302138
  20         V                 0.590945          1.651765
  21         V                 0.665808          1.572465
  22         V                 0.691216          2.147762
  23         V                 0.773134          2.425517
  24         V                 0.775024          2.318364
  25         V                 0.844079          1.087956
  26         V                 0.951148          3.418682
  27         V                 2.231418          3.926890
  28         V                 2.290905          4.026841
  29         V                 2.332318          4.305344
  30         V                 2.407261          4.519068
  31         V                 2.670939          6.300632
  32         V                 2.818057          6.307089
  33         V                 2.877705          6.137928
  34         V                 2.952171          6.225864
  35         V                 3.140025          6.820657
  36         V                 3.320344          6.402617
  37         V                23.352607         60.074873
  38         V                23.705064         60.203130
 Total kinetic energy from orbitals= 7.815070434795D+01
 Calling FoFJK, ICntrl=      2127 FMM=F ISym2X=0 I1Cent= 0 IOpClX= 0 NMat=1 NMatS=1 NMatT=0.
 -------------------------------------------------------------------
 Center     Atomic                   Forces (Hartrees/Bohr)
 Number     Number              X              Y              Z
 -------------------------------------------------------------------
      1        6           0.014736772    0.009005890   -0.003057952
      2        1          -0.011023445    0.006922678    0.001584080
      3        1           0.003237499   -0.005197756    0.001441464
      4        6           0.009418575    0.006599692   -0.003633200
      5        1           0.000322633   -0.011528786    0.001777516
      6        1          -0.016692034   -0.005801718    0.001888092
 -------------------------------------------------------------------
 Cartesian Forces:  Max     0.016692034 RMS     0.007876285

 GradGradGradGradGradGradGradGradGradGradGradGradGradGradGradGradGradGrad
 Berny optimization.
 Search for a local minimum.
 Step number   1 out of a maximum of    2
 All quantities printed in internal units (Hartrees-Bohrs-Radians)
 Second derivative matrix not updated -- first step.
 The second derivative matrix:
                          X1        Y1        Z1        X2        Y2
           X1           0.75788
           Y1           0.09638   0.85262
           Z1           0.00476   0.00688   0.16958
           X2          -0.16506   0.09621   0.00157   0.14254
           Y2           0.10194  -0.27937  -0.00570  -0.11533   0.26804
           Z2           0.00251  -0.00717  -0.05420  -0.00229   0.00588
           X3          -0.35179  -0.00062  -0.00646  -0.00011  -0.00006
           Y3          -0.00626  -0.11032  -0.00154   0.03219   0.01910
           Z3          -0.00822  -0.00150  -0.05581   0.00118   0.00045
           X4          -0.26625  -0.17741  -0.00072   0.02265   0.01345
           Y4          -0.17769  -0.47123  -0.00115  -0.01307  -0.00776
           Z4           0.00094   0.00177  -0.09397  -0.00046  -0.00064
           X5           0.02361  -0.01363   0.00053  -0.00000   0.00000
           Y5           0.01164  -0.00672   0.00073   0.00000  -0.00000
           Z5          -0.00038   0.00023   0.01766   0.00019  -0.00010
           X6           0.00161  -0.00093   0.00032  -0.00000   0.00000
           Y6          -0.02602   0.01502   0.00078   0.00000  -0.00000
           Z6           0.00039  -0.00021   0.01674  -0.00019   0.00010
                          Z2        X3        Y3        Z3        X4
           Z2           0.02813
           X3          -0.00023   0.35183
           Y3           0.00129   0.00072   0.07583
           Z3           0.01053   0.00704   0.00103   0.02916
           X4           0.00044   0.00008  -0.02666  -0.00044   0.71319
           Y4          -0.00024  -0.00005   0.01539   0.00027   0.11944
           Z4           0.01543  -0.00035  -0.00077   0.01624  -0.00412
           X5          -0.00022  -0.00000   0.00000   0.00022  -0.14682
           Y5           0.00013   0.00000  -0.00000  -0.00014   0.09336
           Z5           0.00922   0.00021  -0.00013  -0.00941  -0.00272
           X6          -0.00021  -0.00000   0.00000   0.00021  -0.32285
           Y6           0.00011   0.00000  -0.00000  -0.00011  -0.02218
           Z6          -0.00910  -0.00020   0.00013   0.00929   0.00756
                          Y4        Z4        X5        Y5        Z5
           Y4           0.86229
           Z4          -0.00839   0.17635
           X5           0.08487  -0.00180   0.12526
           Y5          -0.29411   0.00642  -0.10401   0.28469
           Z5           0.00793  -0.05764   0.00241  -0.00684   0.02990
           X6          -0.01351   0.00579  -0.00204  -0.00100   0.00029
           Y6          -0.10458   0.00161   0.03276   0.01613  -0.00110
           Z6           0.00158  -0.05641  -0.00115  -0.00030   0.01028
                          X6        Y6        Z6
           X6           0.32329
           Y6           0.01543   0.07343
           Z6          -0.00641  -0.00130   0.02919
 ITU=  0
     Eigenvalues ---    0.03705   0.04379   0.09297   0.09966   0.13498
     Eigenvalues ---    0.17490   0.26329   0.29017   0.52850   0.70255
     Eigenvalues ---    0.97469   1.55807
 Angle between quadratic step and forces=  32.77 degrees.
 Linear search not attempted -- first point.
 B after Tr=     0.007375    0.007269   -0.008186
         Rot=    1.000000   -0.000010    0.000005   -0.000100 Ang=  -0.01 deg.
 Variable       Old X    -DE/DX   Delta X   Delta X   Delta X     New X
                                 (Linear)    (Quad)   (Total)
    X1       -0.63609   0.01474   0.00000   0.02255   0.03014  -0.60596
    Y1       -1.09999   0.00901   0.00000   0.02369   0.03084  -1.06915
    Z1        0.01062  -0.00306   0.00000  -0.01700  -0.02521  -0.01459
    X2        0.42569  -0.01102   0.00000  -0.04471  -0.03677   0.38892
    Y2       -2.88677   0.00692   0.00000   0.02296   0.03030  -2.85647
    Z2       -0.03130   0.00158   0.00000   0.02098   0.01274  -0.01856
    X3       -2.68913   0.00324   0.00000   0.03109   0.03869  -2.65044
    Y3       -1.10553  -0.00520   0.00000  -0.01897  -0.01223  -1.11775
    Z3       -0.03416   0.00144   0.00000   0.02073   0.01249  -0.02166
    X4        0.62915   0.00942   0.00000   0.00796   0.01512   0.64426
    Y4        1.09185   0.00660   0.00000   0.00642   0.01381   1.10566
    Z4        0.00877  -0.00363   0.00000  -0.01688  -0.02504  -0.01627
    X5       -0.29082   0.00032   0.00000  -0.01984  -0.01305  -0.30387
    Y5        2.95645  -0.01153   0.00000  -0.04122  -0.03401   2.92244
    Z5       -0.04012   0.00178   0.00000   0.02080   0.01267  -0.02745
    X6        2.72516  -0.01669   0.00000  -0.04126  -0.03412   2.69104
    Y6        1.22097  -0.00580   0.00000  -0.03652  -0.02872   1.19226
    Z6       -0.03731   0.00189   0.00000   0.02049   0.01235  -0.02496
         Item               Value     Threshold  Converged?
 Maximum Force            0.016692     0.000450     NO 
 RMS     Force            0.007876     0.000300     NO 
 Maximum Displacement     0.038685     0.001800     NO 
 RMS     Displacement     0.025171     0.001200     NO 
 Predicted change in Energy=-1.567751D-03
 GradGradGradGradGradGradGradGradGradGradGradGradGradGradGradGradGradGrad

 Unable to Open any file for archive entry.
 1\1\GINC-BHD0009\Force\RwB97XD\6-311G\C2H4\BWEIGHT\11-Jan-2023\0\\# WB
 97XD/6-311G SCF=XQC FORCE nosym pop=full guess=read\\MD Step 1000\\0,1
 \C,-0.3366054,-0.58208704,0.00562153\H,0.22526604,-1.52761357,-0.01656
 3\H,-1.42302485,-0.58501875,-0.01807525\C,0.33293062,0.57778099,0.0046
 3956\H,-0.15389579,1.56448733,-0.02123104\H,1.44209314,0.6461108,-0.01
 974598\\Version=ES64L-G16RevC.01\HF=-78.5557082\RMSD=5.725e-09\RMSF=7.
 876e-03\Dipole=0.0017495,0.010466,-0.0314002\Quadrupole=0.8658421,0.85
 16729,-1.717515,0.0054639,-0.000548,-0.0044473\PG=C01 [X(C2H4)]\\@
 The archive entry for this job was punched.


 Money is a good servant but a bad master.
                        -- French Proverb
 Job cpu time:       0 days  0 hours  1 minutes  3.1 seconds.
 Elapsed time:       0 days  0 hours  0 minutes 21.2 seconds.
 File lengths (MBytes):  RWF=    272 Int=      0 D2E=      0 Chk=     32 Scr=     32
 Normal termination of Gaussian 16 at Wed Jan 11 18:36:55 2023.
