 Entering Gaussian System, Link 0=g16
 Initial command:
 /software/gaussian/g16-c01/avx2/g16/l1.exe "/gpfs/fs2/scratch/bweight/software/many_molecule_many_mode_NAMD/src/NAMD/TESTING/G16/DIMER/Gau-30904.inp" -scrdir="/gpfs/fs2/scratch/bweight/software/many_molecule_many_mode_NAMD/src/NAMD/TESTING/G16/DIMER/"
 Entering Link 1 = /software/gaussian/g16-c01/avx2/g16/l1.exe PID=     30905.
  
 Copyright (c) 1988-2019, Gaussian, Inc.  All Rights Reserved.
  
 This is part of the Gaussian(R) 16 program.  It is based on
 the Gaussian(R) 09 system (copyright 2009, Gaussian, Inc.),
 the Gaussian(R) 03 system (copyright 2003, Gaussian, Inc.),
 the Gaussian(R) 98 system (copyright 1998, Gaussian, Inc.),
 the Gaussian(R) 94 system (copyright 1995, Gaussian, Inc.),
 the Gaussian 92(TM) system (copyright 1992, Gaussian, Inc.),
 the Gaussian 90(TM) system (copyright 1990, Gaussian, Inc.),
 the Gaussian 88(TM) system (copyright 1988, Gaussian, Inc.),
 the Gaussian 86(TM) system (copyright 1986, Carnegie Mellon
 University), and the Gaussian 82(TM) system (copyright 1983,
 Carnegie Mellon University). Gaussian is a federally registered
 trademark of Gaussian, Inc.
  
 This software contains proprietary and confidential information,
 including trade secrets, belonging to Gaussian, Inc.
  
 This software is provided under written license and may be
 used, copied, transmitted, or stored only in accord with that
 written license.
  
 The following legend is applicable only to US Government
 contracts under FAR:
  
                    RESTRICTED RIGHTS LEGEND
  
 Use, reproduction and disclosure by the US Government is
 subject to restrictions as set forth in subparagraphs (a)
 and (c) of the Commercial Computer Software - Restricted
 Rights clause in FAR 52.227-19.
  
 Gaussian, Inc.
 340 Quinnipiac St., Bldg. 40, Wallingford CT 06492
  
  
 ---------------------------------------------------------------
 Warning -- This program may not be used in any manner that
 competes with the business of Gaussian, Inc. or will provide
 assistance to any competitor of Gaussian, Inc.  The licensee
 of this program is prohibited from giving any competitor of
 Gaussian, Inc. access to this program.  By using this program,
 the user acknowledges that Gaussian, Inc. is engaged in the
 business of creating and licensing software in the field of
 computational chemistry and represents and warrants to the
 licensee that it is not a competitor of Gaussian, Inc. and that
 it will not use this program in any manner prohibited above.
 ---------------------------------------------------------------
  

 Cite this work as:
 Gaussian 16, Revision C.01,
 M. J. Frisch, G. W. Trucks, H. B. Schlegel, G. E. Scuseria, 
 M. A. Robb, J. R. Cheeseman, G. Scalmani, V. Barone, 
 G. A. Petersson, H. Nakatsuji, X. Li, M. Caricato, A. V. Marenich, 
 J. Bloino, B. G. Janesko, R. Gomperts, B. Mennucci, H. P. Hratchian, 
 J. V. Ortiz, A. F. Izmaylov, J. L. Sonnenberg, D. Williams-Young, 
 F. Ding, F. Lipparini, F. Egidi, J. Goings, B. Peng, A. Petrone, 
 T. Henderson, D. Ranasinghe, V. G. Zakrzewski, J. Gao, N. Rega, 
 G. Zheng, W. Liang, M. Hada, M. Ehara, K. Toyota, R. Fukuda, 
 J. Hasegawa, M. Ishida, T. Nakajima, Y. Honda, O. Kitao, H. Nakai, 
 T. Vreven, K. Throssell, J. A. Montgomery, Jr., J. E. Peralta, 
 F. Ogliaro, M. J. Bearpark, J. J. Heyd, E. N. Brothers, K. N. Kudin, 
 V. N. Staroverov, T. A. Keith, R. Kobayashi, J. Normand, 
 K. Raghavachari, A. P. Rendell, J. C. Burant, S. S. Iyengar, 
 J. Tomasi, M. Cossi, J. M. Millam, M. Klene, C. Adamo, R. Cammi, 
 J. W. Ochterski, R. L. Martin, K. Morokuma, O. Farkas, 
 J. B. Foresman, and D. J. Fox, Gaussian, Inc., Wallingford CT, 2019.
 
 ******************************************
 Gaussian 16:  ES64L-G16RevC.01  3-Jul-2019
                29-Dec-2022 
 ******************************************
 %chk=geometry.chk
 %nprocshared=1
 Will use up to    1 processors via shared memory.
 %mem=5GB
 ----------------------------------------------------------
 # BLYP/3-21G nosymm iop(2/12=3,3/33=1) guess=only pop=full
 ----------------------------------------------------------
 1/38=1,172=1/1;
 2/12=3,15=1,17=6,18=5,40=1/2;
 3/5=5,11=2,25=1,30=1,33=1,74=402,89=1/1,2;
 4//1;
 6/7=3,28=1/1;
 99/5=2/99;
 ---------
 MD Step 1
 ---------
 Symbolic Z-matrix:
 Charge =  0 Multiplicity = 1
 Li                    0.        0.        0. 
 F                     0.        0.        1. 
 Li                    0.00833   0.00833  -0.02814 
 F                     0.00503   0.00503   1.01836 
 
                          Input orientation:                          
 ---------------------------------------------------------------------
 Center     Atomic      Atomic             Coordinates (Angstroms)
 Number     Number       Type             X           Y           Z
 ---------------------------------------------------------------------
      1          3           0        0.000000    0.000000    0.000000
      2          9           0        0.000000    0.000000    1.000000
      3          3           0        0.008331    0.008333   -0.028136
      4          9           0        0.005035    0.005035    1.018359
 ---------------------------------------------------------------------
                    Distance matrix (angstroms):
                    1          2          3          4
     1  Li   0.000000
     2  F    1.000000   0.000000
     3  Li   0.030503   1.028203   0.000000
     4  F    1.018384   0.019692   1.046505   0.000000
 Symmetry turned off by external request.
 Stoichiometry    F2Li2
 Framework group  CS[SG(F2Li2)]
 Deg. of freedom     5
 Full point group                 CS      NOp   2
 Rotational constants (GHZ):      521521.4753080          47.0748240          47.0705752
 Standard basis: 3-21G (6D, 7F)
                         Coordinates in L301:                         
 ---------------------------------------------------------------------
 Center     Atomic      Atomic             Coordinates (Angstroms)
 Number     Number       Type             X           Y           Z
 ---------------------------------------------------------------------
      1          3           0        0.000000    0.000000    0.000000
      2          9           0        0.000000    0.000000    1.000000
      3          3           0        0.008331    0.008333   -0.028136
      4          9           0        0.005035    0.005035    1.018359
 ---------------------------------------------------------------------
 FixB: optimizing general contractions.
 Ernie: Thresh=  0.10000D-02 Tol=  0.10000D-05 Strict=F.
 IA=     1 ShT= 0 ShC= 0 NL=   1 NS=   0.
 IA=     1 L=0 SC=0 ISt=    0 NBk=    0 NP=    0 IndPr=    0.
 IA=     1 ShT= 1 ShC= 0 NL=   2 NS=   1.
 IA=     1 L=1 SC=0 ISt=    0 NBk=    0 NP=    0 IndPr=    0.
 IA=     2 ShT= 0 ShC= 0 NL=   1 NS=   0.
 IA=     2 L=0 SC=0 ISt=    0 NBk=    0 NP=    0 IndPr=    0.
 IA=     2 ShT= 1 ShC= 0 NL=   2 NS=   1.
 IA=     2 L=1 SC=0 ISt=    0 NBk=    0 NP=    0 IndPr=    0.
 IA=     3 ShT= 0 ShC= 0 NL=   1 NS=   0.
 IA=     3 L=0 SC=0 ISt=    0 NBk=    0 NP=    0 IndPr=    0.
 IA=     3 ShT= 1 ShC= 0 NL=   2 NS=   1.
 IA=     3 L=1 SC=0 ISt=    0 NBk=    0 NP=    0 IndPr=    0.
 IA=     4 ShT= 0 ShC= 0 NL=   1 NS=   0.
 IA=     4 L=0 SC=0 ISt=    0 NBk=    0 NP=    0 IndPr=    0.
 IA=     4 ShT= 1 ShC= 0 NL=   2 NS=   1.
 IA=     4 L=1 SC=0 ISt=    0 NBk=    0 NP=    0 IndPr=    0.
 LdAtmC:  AtmChg=     3.000000     9.000000     3.000000     9.000000
 AtZEff=     -1.3500000     -6.7500000     -1.3500000     -6.7500000
    36 basis functions,    60 primitive gaussians,    36 cartesian basis functions
    12 alpha electrons       12 beta electrons
       nuclear repulsion energy      2388.7296595122 Hartrees.
 IS=     1 IAt=     1 ISR=     1 T=0 IP=      1 IndIP=      1 IndIPD=      0 C=  7.424571D-01  0.000000D+00                             NZ=T
 IS=     1 IAt=     1 ISR=     1 T=0 IP=      2 IndIP=      2 IndIPD=      1 C=  9.736824D-01  0.000000D+00                             NZ=T
 IS=     1 IAt=     1 ISR=     1 T=0 IP=      3 IndIP=      3 IndIPD=      2 C=  5.265692D-01  0.000000D+00                             NZ=T
 IS=     2 IAt=     1 ISR=     2 T=1 IP=      1 IndIP=      4 IndIPD=      0 C= -1.181663D-01  1.066435D-01                             NZ=T
 IS=     2 IAt=     1 ISR=     2 T=1 IP=      2 IndIP=      5 IndIPD=      1 C=  1.473557D-01  7.547122D-02                             NZ=T
 IS=     3 IAt=     1 ISR=     3 T=1 IP=      1 IndIP=      6 IndIPD=      0 C=  4.951993D-02  1.673876D-02                             NZ=T
 IS=     4 IAt=     2 ISR=     1 T=0 IP=      1 IndIP=      7 IndIPD=      0 C=  3.828407D+00  0.000000D+00                             NZ=T
 IS=     4 IAt=     2 ISR=     1 T=0 IP=      2 IndIP=      8 IndIPD=      1 C=  5.516897D+00  0.000000D+00                             NZ=T
 IS=     4 IAt=     2 ISR=     1 T=0 IP=      3 IndIP=      9 IndIPD=      2 C=  3.548929D+00  0.000000D+00                             NZ=T
 IS=     5 IAt=     2 ISR=     2 T=1 IP=      1 IndIP=     10 IndIPD=      0 C= -1.605190D+00  6.079443D+00                             NZ=T
 IS=     5 IAt=     2 ISR=     2 T=1 IP=      2 IndIP=     11 IndIPD=      1 C=  1.513205D+00  3.046004D+00                             NZ=T
 IS=     6 IAt=     2 ISR=     3 T=1 IP=      1 IndIP=     12 IndIPD=      0 C=  4.125286D-01  5.730336D-01                             NZ=T
 IS=     7 IAt=     3 ISR=     1 T=0 IP=      1 IndIP=     13 IndIPD=      0 C=  7.424571D-01  0.000000D+00                             NZ=T
 IS=     7 IAt=     3 ISR=     1 T=0 IP=      2 IndIP=     14 IndIPD=      1 C=  9.736824D-01  0.000000D+00                             NZ=T
 IS=     7 IAt=     3 ISR=     1 T=0 IP=      3 IndIP=     15 IndIPD=      2 C=  5.265692D-01  0.000000D+00                             NZ=T
 IS=     8 IAt=     3 ISR=     2 T=1 IP=      1 IndIP=     16 IndIPD=      0 C= -1.181663D-01  1.066435D-01                             NZ=T
 IS=     8 IAt=     3 ISR=     2 T=1 IP=      2 IndIP=     17 IndIPD=      1 C=  1.473557D-01  7.547122D-02                             NZ=T
 IS=     9 IAt=     3 ISR=     3 T=1 IP=      1 IndIP=     18 IndIPD=      0 C=  4.951993D-02  1.673876D-02                             NZ=T
 IS=    10 IAt=     4 ISR=     1 T=0 IP=      1 IndIP=     19 IndIPD=      0 C=  3.828407D+00  0.000000D+00                             NZ=T
 IS=    10 IAt=     4 ISR=     1 T=0 IP=      2 IndIP=     20 IndIPD=      1 C=  5.516897D+00  0.000000D+00                             NZ=T
 IS=    10 IAt=     4 ISR=     1 T=0 IP=      3 IndIP=     21 IndIPD=      2 C=  3.548929D+00  0.000000D+00                             NZ=T
 IS=    11 IAt=     4 ISR=     2 T=1 IP=      1 IndIP=     22 IndIPD=      0 C= -1.605190D+00  6.079443D+00                             NZ=T
 IS=    11 IAt=     4 ISR=     2 T=1 IP=      2 IndIP=     23 IndIPD=      1 C=  1.513205D+00  3.046004D+00                             NZ=T
 IS=    12 IAt=     4 ISR=     3 T=1 IP=      1 IndIP=     24 IndIPD=      0 C=  4.125286D-01  5.730336D-01                             NZ=T
 IExCor=  402 DFT=T Ex=B Corr=LYP ExCW=0 ScaHFX=  0.000000
 ScaDFX=  1.000000  1.000000  1.000000  1.000000 ScalE2=  1.000000  1.000000
 IRadAn=      5 IRanWt=     -1 IRanGd=            0 ICorTp=0 IEmpDi=  4
 NAtoms=    4 NActive=    4 NUniq=    4 SFac= 1.00D+00 NAtFMM=   60 NAOKFM=F Big=F
 Integral buffers will be    131072 words long.
 Raffenetti 2 integral format.
 Two-electron integral symmetry is turned off.
 NPDir=0 NMtPBC=     1 NCelOv=     1 NCel=       1 NClECP=     1 NCelD=      1
         NCelK=      1 NCelE2=     1 NClLst=     1 CellRange=     0.0.
 One-electron integrals computed using PRISM.
 Entering OneElI...
 Calculate overlap and kinetic energy integrals
    NBasis =  36  MinDer = 0  MaxDer = 0
 Requested accuracy = 0.1000D-12
 PrmmSu-InSpLW:  IPartL=    0 NPrtUS=    1 NPrtUL=    1 DoSpLW=F IThBeg=    0 IThEnd=    0 NThAct=    1.
 PrSmSu:  IncTry=   512 NBBP=             78 NTPThr=   100 NPartT=    1 Incr=           1 LDynOK=F GPUOK=F.
 PrsmSu:  NPrtUS=   1 ThrOK=F IAlg=2 LenDen=           0 ISkipM=0 DoSpLW=F IThBeg=    0 IThEnd=    0.
 Prism:   IPart=     0 DynPar=F LinDyn=F Incr=           1.
 PRISM was handed   671078923 working-precision words and    78 shell-pairs
 IPart=  0 NShTot=          78 NBatch=           7 AvBLen=        11.1
 PrSmSu:  NxtVal=              2.
 *** Overlap *** 
                1             2             3             4             5 
      1  0.100000D+01
      2  0.177215D+00  0.100000D+01
      3  0.000000D+00  0.000000D+00  0.100000D+01
      4  0.000000D+00  0.000000D+00  0.000000D+00  0.100000D+01
      5  0.000000D+00  0.000000D+00  0.000000D+00  0.000000D+00  0.100000D+01
      6  0.140674D+00  0.782781D+00  0.000000D+00  0.000000D+00  0.000000D+00
      7  0.000000D+00  0.000000D+00  0.588593D+00  0.000000D+00  0.000000D+00
      8  0.000000D+00  0.000000D+00  0.000000D+00  0.588593D+00  0.000000D+00
      9  0.000000D+00  0.000000D+00  0.000000D+00  0.000000D+00  0.588593D+00
     10  0.544267D-02  0.392229D-01  0.000000D+00  0.000000D+00  0.588801D-01
     11  0.561513D-01  0.195816D+00  0.000000D+00  0.000000D+00  0.281710D+00
     12  0.000000D+00  0.000000D+00  0.850095D-01  0.000000D+00  0.000000D+00
     13  0.000000D+00  0.000000D+00  0.000000D+00  0.850095D-01  0.000000D+00
     14 -0.845168D-01 -0.885783D-02  0.000000D+00  0.000000D+00 -0.181574D-01
     15  0.213305D+00  0.454570D+00  0.000000D+00  0.000000D+00  0.532392D+00
     16  0.000000D+00  0.000000D+00  0.405636D+00  0.000000D+00  0.000000D+00
     17  0.000000D+00  0.000000D+00  0.000000D+00  0.405636D+00  0.000000D+00
     18 -0.410011D+00 -0.110692D+00  0.000000D+00  0.000000D+00  0.823581D-01
     19  0.995973D+00  0.177364D+00  0.502782D-02  0.502913D-02 -0.169800D-01
     20  0.177364D+00  0.999823D+00  0.392785D-02  0.392887D-02 -0.132652D-01
     21 -0.502782D-02 -0.392785D-02  0.999765D+00 -0.305167D-04  0.103035D-03
     22 -0.502913D-02 -0.392887D-02 -0.305167D-04  0.999765D+00  0.103061D-03
     23  0.169800D-01  0.132652D-01  0.103035D-03  0.103061D-03  0.999447D+00
     24  0.140661D+00  0.782724D+00  0.156600D-02  0.156641D-02 -0.528872D-02
     25 -0.732117D-03 -0.318786D-02  0.588543D+00 -0.656412D-05  0.221627D-04
     26 -0.732308D-03 -0.318869D-02 -0.656412D-05  0.588543D+00  0.221685D-04
     27  0.247252D-02  0.107661D-01  0.221627D-04  0.221685D-04  0.588475D+00
     28  0.474433D-02  0.391321D-01  0.288883D-03  0.288896D-03  0.584323D-01
     29  0.509578D-01  0.195191D+00  0.138775D-02  0.138781D-02  0.280700D+00
     30 -0.383768D-03 -0.529764D-04  0.831281D-01 -0.251981D-05 -0.509658D-03
     31 -0.383786D-03 -0.529788D-04 -0.251981D-05  0.831281D-01 -0.509681D-03
     32 -0.776248D-01 -0.107155D-01 -0.509658D-03 -0.509681D-03 -0.199580D-01
     33  0.203553D+00  0.451850D+00  0.264115D-02  0.264128D-02  0.534227D+00
     34 -0.196877D-02 -0.567394D-03  0.399688D+00 -0.803763D-05 -0.162570D-02
     35 -0.196886D-02 -0.567420D-03 -0.803763D-05  0.399688D+00 -0.162577D-02
     36 -0.398223D+00 -0.114767D+00 -0.162570D-02 -0.162577D-02  0.708658D-01
                6             7             8             9            10 
      6  0.100000D+01
      7  0.000000D+00  0.100000D+01
      8  0.000000D+00  0.000000D+00  0.100000D+01
      9  0.000000D+00  0.000000D+00  0.000000D+00  0.100000D+01
     10  0.208027D-01  0.000000D+00  0.000000D+00  0.132630D-01  0.100000D+01
     11  0.109672D+00  0.000000D+00  0.000000D+00  0.690205D-01  0.214714D+00
     12  0.000000D+00  0.205881D-01  0.000000D+00  0.000000D+00  0.000000D+00
     13  0.000000D+00  0.000000D+00  0.205881D-01  0.000000D+00  0.000000D+00
     14 -0.657548D-02  0.000000D+00  0.000000D+00  0.164428D-01  0.000000D+00
     15  0.282859D+00  0.000000D+00  0.000000D+00  0.170580D+00  0.183583D+00
     16  0.000000D+00  0.129967D+00  0.000000D+00  0.000000D+00  0.000000D+00
     17  0.000000D+00  0.000000D+00  0.129967D+00  0.000000D+00  0.000000D+00
     18 -0.415093D-01  0.000000D+00  0.000000D+00  0.104935D+00  0.000000D+00
     19  0.140661D+00  0.732117D-03  0.732308D-03 -0.247252D-02  0.440434D-02
     20  0.782724D+00  0.318786D-02  0.318869D-02 -0.107661D-01  0.390713D-01
     21 -0.156600D-02  0.588543D+00 -0.656412D-05  0.221627D-04 -0.471487D-03
     22 -0.156641D-02 -0.656412D-05  0.588543D+00  0.221685D-04 -0.471610D-03
     23  0.528872D-02  0.221627D-04  0.221685D-04  0.588475D+00  0.581867D-01
     24  0.999953D+00  0.266065D-02  0.266135D-02 -0.898560D-02  0.206819D-01
     25 -0.266065D-02  0.999945D+00 -0.708125D-05  0.239087D-04 -0.109852D-03
     26 -0.266135D-02 -0.708125D-05  0.999945D+00  0.239149D-04 -0.109881D-03
     27  0.898560D-02  0.239087D-04  0.239149D-04  0.999872D+00  0.135569D-01
     28  0.207242D-01  0.665226D-04  0.665256D-04  0.134555D-01  0.982368D+00
     29  0.109264D+00  0.346201D-03  0.346217D-03  0.700261D-01  0.216434D+00
     30 -0.329818D-04  0.205112D-01  0.000000D+00 -0.211741D-04 -0.183132D-01
     31 -0.329833D-04  0.000000D+00  0.205112D-01 -0.211750D-04 -0.183140D-01
     32 -0.667124D-02 -0.211741D-04 -0.211750D-04  0.162284D-01 -0.667806D-01
     33  0.281850D+00  0.855748D-03  0.855787D-03  0.173092D+00  0.183464D+00
     34 -0.208240D-03  0.129503D+00  0.000000D+00 -0.127886D-03 -0.235014D-02
     35 -0.208249D-03  0.000000D+00  0.129503D+00 -0.127892D-03 -0.235024D-02
     36 -0.421206D-01 -0.127886D-03 -0.127892D-03  0.103636D+00 -0.856997D-02
               11            12            13            14            15 
     11  0.100000D+01
     12  0.000000D+00  0.100000D+01
     13  0.000000D+00  0.000000D+00  0.100000D+01
     14  0.000000D+00  0.000000D+00  0.000000D+00  0.100000D+01
     15  0.732193D+00  0.000000D+00  0.000000D+00  0.000000D+00  0.100000D+01
     16  0.000000D+00  0.488370D+00  0.000000D+00  0.000000D+00  0.000000D+00
     17  0.000000D+00  0.000000D+00  0.488370D+00  0.000000D+00  0.000000D+00
     18  0.000000D+00  0.000000D+00  0.000000D+00  0.488370D+00  0.000000D+00
     19  0.483536D-01  0.600647D-03  0.600804D-03 -0.741265D-01  0.198462D+00
     20  0.194814D+00  0.947479D-04  0.947726D-04 -0.116929D-01  0.450357D+00
     21 -0.226970D-02  0.821350D-01 -0.676501D-05  0.834659D-03 -0.433574D-02
     22 -0.227029D-02 -0.676501D-05  0.821350D-01  0.834876D-03 -0.433687D-02
     23  0.280105D+00  0.834659D-03  0.834876D-03 -0.208643D-01  0.535078D+00
     24  0.109043D+00  0.544657D-04  0.544799D-04 -0.672167D-02  0.281306D+00
     25 -0.571713D-03  0.204696D-01  0.000000D+00  0.353022D-04 -0.141329D-02
     26 -0.571862D-03  0.000000D+00  0.204696D-01  0.353114D-04 -0.141366D-02
     27  0.705557D-01  0.353022D-04  0.353114D-04  0.161132D-01  0.174416D+00
     28  0.216434D+00  0.183132D-01  0.183140D-01  0.667806D-01  0.183464D+00
     29  0.998295D+00  0.821655D-02  0.821692D-02  0.299623D-01  0.731807D+00
     30 -0.821655D-02  0.997779D+00 -0.256534D-03 -0.935431D-03 -0.322534D-02
     31 -0.821692D-02 -0.256534D-03  0.997779D+00 -0.935473D-03 -0.322548D-02
     32 -0.299623D-01 -0.935431D-03 -0.935473D-03  0.994624D+00 -0.117614D-01
     33  0.731807D+00  0.322534D-02  0.322548D-02  0.117614D-01  0.999666D+00
     34 -0.764647D-02  0.488067D+00 -0.349753D-04 -0.127534D-03 -0.660570D-02
     35 -0.764682D-02 -0.349753D-04  0.488067D+00 -0.127540D-03 -0.660601D-02
     36 -0.278835D-01 -0.127534D-03 -0.127540D-03  0.487637D+00 -0.240882D-01
               16            17            18            19            20 
     16  0.100000D+01
     17  0.000000D+00  0.100000D+01
     18  0.000000D+00  0.000000D+00  0.100000D+01
     19  0.317532D-02  0.317615D-02 -0.391869D+00  0.100000D+01
     20  0.947478D-03  0.947725D-03 -0.116929D+00  0.177215D+00  0.100000D+01
     21  0.396505D+00 -0.217843D-04  0.268773D-02  0.000000D+00  0.000000D+00
     22 -0.217843D-04  0.396505D+00  0.268843D-02  0.000000D+00  0.000000D+00
     23  0.268773D-02  0.268843D-02  0.648316D-01  0.000000D+00  0.000000D+00
     24  0.343914D-03  0.344004D-03 -0.424428D-01  0.140674D+00  0.782781D+00
     25  0.129251D+00 -0.172829D-05  0.213235D-03  0.000000D+00  0.000000D+00
     26 -0.172829D-05  0.129251D+00  0.213290D-03  0.000000D+00  0.000000D+00
     27  0.213235D-03  0.213290D-03  0.102938D+00  0.000000D+00  0.000000D+00
     28  0.235014D-02  0.235024D-02  0.856997D-02  0.382702D-02  0.389353D-01
     29  0.764647D-02  0.764682D-02  0.278835D-01  0.437980D-01  0.194031D+00
     30  0.488067D+00 -0.349753D-04 -0.127534D-03  0.214025D-03  0.424818D-04
     31 -0.349753D-04  0.488067D+00 -0.127540D-03  0.214151D-03  0.425068D-04
     32 -0.127534D-03 -0.127540D-03  0.487637D+00 -0.679468D-01 -0.134868D-01
     33  0.660570D-02  0.660601D-02  0.240882D-01  0.189191D+00  0.447500D+00
     34  0.999622D+00 -0.436519D-04 -0.159173D-03  0.119700D-02  0.380983D-03
     35 -0.436519D-04  0.999622D+00 -0.159180D-03  0.119771D-02  0.381207D-03
     36 -0.159173D-03 -0.159180D-03  0.999086D+00 -0.380014D+00 -0.120951D+00
               21            22            23            24            25 
     21  0.100000D+01
     22  0.000000D+00  0.100000D+01
     23  0.000000D+00  0.000000D+00  0.100000D+01
     24  0.000000D+00  0.000000D+00  0.000000D+00  0.100000D+01
     25  0.588593D+00  0.000000D+00  0.000000D+00  0.000000D+00  0.100000D+01
     26  0.000000D+00  0.588593D+00  0.000000D+00  0.000000D+00  0.000000D+00
     27  0.000000D+00  0.000000D+00  0.588593D+00  0.000000D+00  0.000000D+00
     28 -0.181839D-03 -0.181946D-03  0.577289D-01  0.206021D-01 -0.432976D-04
     29 -0.878663D-03 -0.879180D-03  0.278951D+00  0.108628D+00 -0.225349D-03
     30  0.803247D-01 -0.102074D-05  0.323866D-03  0.214683D-04  0.203917D-01
     31 -0.102074D-05  0.803247D-01  0.324057D-03  0.214810D-04  0.000000D+00
     32  0.323866D-03  0.324057D-03 -0.224926D-01 -0.681559D-02  0.141633D-04
     33 -0.169001D-02 -0.169100D-02  0.536530D+00  0.280279D+00 -0.557160D-03
     34  0.390624D+00 -0.334531D-05  0.106142D-02  0.135581D-03  0.128781D+00
     35 -0.334531D-05  0.390624D+00  0.106204D-02  0.135660D-03  0.000000D+00
     36  0.106142D-02  0.106204D-02  0.536576D-01 -0.430430D-01  0.855642D-04
               26            27            28            29            30 
     26  0.100000D+01
     27  0.000000D+00  0.100000D+01
     28 -0.433231D-04  0.137458D-01  0.100000D+01
     29 -0.225482D-03  0.715420D-01  0.214714D+00  0.100000D+01
     30  0.000000D+00  0.141633D-04  0.000000D+00  0.000000D+00  0.100000D+01
     31  0.203917D-01  0.141716D-04  0.000000D+00  0.000000D+00  0.000000D+00
     32  0.141716D-04  0.158953D-01  0.000000D+00  0.000000D+00  0.000000D+00
     33 -0.557488D-03  0.176883D+00  0.183583D+00  0.732193D+00  0.000000D+00
     34  0.000000D+00  0.855642D-04  0.000000D+00  0.000000D+00  0.488370D+00
     35  0.128781D+00  0.856146D-04  0.000000D+00  0.000000D+00  0.000000D+00
     36  0.856146D-04  0.101617D+00  0.000000D+00  0.000000D+00  0.000000D+00
               31            32            33            34            35 
     31  0.100000D+01
     32  0.000000D+00  0.100000D+01
     33  0.000000D+00  0.000000D+00  0.100000D+01
     34  0.000000D+00  0.000000D+00  0.000000D+00  0.100000D+01
     35  0.488370D+00  0.000000D+00  0.000000D+00  0.000000D+00  0.100000D+01
     36  0.000000D+00  0.488370D+00  0.000000D+00  0.000000D+00  0.000000D+00
               36 
     36  0.100000D+01
 *** Kinetic Energy *** 
                1             2             3             4             5 
      1  0.365490D+01
      2 -0.135538D+00  0.159492D+00
      3  0.000000D+00  0.000000D+00  0.307817D+00
      4  0.000000D+00  0.000000D+00  0.000000D+00  0.307817D+00
      5  0.000000D+00  0.000000D+00  0.000000D+00  0.000000D+00  0.307817D+00
      6  0.117904D-01  0.513380D-01  0.000000D+00  0.000000D+00  0.000000D+00
      7  0.000000D+00  0.000000D+00  0.661980D-01  0.000000D+00  0.000000D+00
      8  0.000000D+00  0.000000D+00  0.000000D+00  0.661980D-01  0.000000D+00
      9  0.000000D+00  0.000000D+00  0.000000D+00  0.000000D+00  0.661980D-01
     10 -0.248594D-01  0.140098D-01  0.000000D+00  0.000000D+00  0.286430D-01
     11 -0.982466D-01  0.536799D-01  0.000000D+00  0.000000D+00  0.143717D+00
     12  0.000000D+00  0.000000D+00  0.431119D-01  0.000000D+00  0.000000D+00
     13  0.000000D+00  0.000000D+00  0.000000D+00  0.431119D-01  0.000000D+00
     14  0.606825D-01  0.130180D-01  0.000000D+00  0.000000D+00 -0.812647D-01
     15  0.336169D-01  0.815471D-01  0.000000D+00  0.000000D+00  0.234869D+00
     16  0.000000D+00  0.000000D+00  0.178950D+00  0.000000D+00  0.000000D+00
     17  0.000000D+00  0.000000D+00  0.000000D+00  0.178950D+00  0.000000D+00
     18 -0.353234D+00  0.233030D-01  0.000000D+00  0.000000D+00 -0.875132D-01
     19  0.359218D+01 -0.135053D+00  0.565116D-02  0.565263D-02 -0.190852D-01
     20 -0.135053D+00  0.159397D+00  0.318046D-03  0.318129D-03 -0.107411D-02
     21 -0.565116D-02 -0.318046D-03  0.307681D+00 -0.176804D-04  0.596949D-04
     22 -0.565263D-02 -0.318129D-03 -0.176804D-04  0.307681D+00  0.597105D-04
     23  0.190852D-01  0.107411D-02  0.596949D-04  0.597105D-04  0.307497D+00
     24  0.117886D-01  0.513319D-01  0.176120D-03  0.176166D-03 -0.594795D-03
     25 -0.102271D-03 -0.346655D-03  0.661901D-01 -0.103511D-05  0.349488D-05
     26 -0.102298D-03 -0.346745D-03 -0.103511D-05  0.661901D-01  0.349579D-05
     27  0.345392D-03  0.117073D-02  0.349488D-05  0.349579D-05  0.661793D-01
     28 -0.230117D-01  0.140768D-01  0.134743D-03  0.134749D-03  0.272545D-01
     29 -0.951924D-01  0.544289D-01  0.687744D-03  0.687775D-03  0.139110D+00
     30  0.320763D-03  0.481636D-04  0.408812D-01 -0.293729D-05 -0.594099D-03
     31  0.320777D-03  0.481658D-04 -0.293729D-05  0.408812D-01 -0.594126D-03
     32  0.648807D-01  0.974206D-02 -0.594099D-03 -0.594126D-03 -0.792842D-01
     33  0.253814D-01  0.820550D-01  0.115035D-02  0.115041D-02  0.232682D+00
     34 -0.162884D-02  0.929582D-04  0.174081D+00 -0.653290D-05 -0.132135D-02
     35 -0.162892D-02  0.929625D-04 -0.653290D-05  0.174081D+00 -0.132141D-02
     36 -0.329466D+00  0.188027D-01 -0.132135D-02 -0.132141D-02 -0.931819D-01
                6             7             8             9            10 
      6  0.428467D-01
      7  0.000000D+00  0.714113D-01
      8  0.000000D+00  0.000000D+00  0.714113D-01
      9  0.000000D+00  0.000000D+00  0.000000D+00  0.714113D-01
     10  0.165852D-02  0.000000D+00  0.000000D+00  0.181368D-02  0.389908D+02
     11  0.863905D-02  0.000000D+00  0.000000D+00  0.932158D-02 -0.375452D+01
     12  0.000000D+00  0.278515D-02  0.000000D+00  0.000000D+00  0.000000D+00
     13  0.000000D+00  0.000000D+00  0.278515D-02  0.000000D+00  0.000000D+00
     14 -0.889529D-03  0.000000D+00  0.000000D+00  0.199065D-02  0.000000D+00
     15  0.214149D-01  0.000000D+00  0.000000D+00  0.221147D-01  0.257510D+00
     16  0.000000D+00  0.168495D-01  0.000000D+00  0.000000D+00  0.000000D+00
     17  0.000000D+00  0.000000D+00  0.168495D-01  0.000000D+00  0.000000D+00
     18 -0.538143D-02  0.000000D+00  0.000000D+00  0.122540D-01  0.000000D+00
     19  0.117886D-01  0.102271D-03  0.102298D-03 -0.345392D-03 -0.220377D-01
     20  0.513319D-01  0.346655D-03  0.346745D-03 -0.117073D-02  0.140902D-01
     21 -0.176120D-03  0.661901D-01 -0.103511D-05  0.349488D-05 -0.215070D-03
     22 -0.176166D-03 -0.103511D-05  0.661901D-01  0.349579D-05 -0.215126D-03
     23  0.594795D-03  0.349488D-05  0.349579D-05  0.661793D-01  0.265420D-01
     24  0.428434D-01  0.189997D-03  0.190046D-03 -0.641661D-03  0.164202D-02
     25 -0.189997D-03  0.714058D-01  0.000000D+00  0.239026D-05 -0.149855D-04
     26 -0.190046D-03  0.000000D+00  0.714058D-01  0.239088D-05 -0.149894D-04
     27  0.641661D-03  0.239026D-05  0.239088D-05  0.713984D-01  0.184938D-02
     28  0.164780D-02  0.908247D-05  0.908288D-05  0.183711D-02  0.364728D+02
     29  0.858396D-02  0.466835D-04  0.466857D-04  0.944268D-02 -0.366363D+01
     30 -0.445482D-05  0.277042D-02  0.000000D+00 -0.405382D-05 -0.366932D+00
     31 -0.445502D-05  0.000000D+00  0.277042D-02 -0.405400D-05 -0.366948D+00
     32 -0.901077D-03 -0.405382D-05 -0.405400D-05  0.195047D-02 -0.133805D+01
     33  0.212842D-01  0.110778D-03  0.110783D-03  0.224070D-01  0.257232D+00
     34 -0.269569D-04  0.167643D-01  0.000000D+00 -0.234525D-04 -0.549329D-02
     35 -0.269581D-04  0.000000D+00  0.167643D-01 -0.234536D-04 -0.549354D-02
     36 -0.545257D-02 -0.234525D-04 -0.234536D-04  0.120206D-01 -0.200317D-01
               11            12            13            14            15 
     11  0.370045D+01
     12  0.000000D+00  0.710468D+01
     13  0.000000D+00  0.000000D+00  0.710468D+01
     14  0.000000D+00  0.000000D+00  0.000000D+00  0.710468D+01
     15  0.837738D+00  0.000000D+00  0.000000D+00  0.000000D+00  0.723575D+00
     16  0.000000D+00  0.966459D+00  0.000000D+00  0.000000D+00  0.000000D+00
     17  0.000000D+00  0.000000D+00  0.966459D+00  0.000000D+00  0.000000D+00
     18  0.000000D+00  0.000000D+00  0.000000D+00  0.966459D+00  0.000000D+00
     19 -0.934445D-01 -0.540224D-03 -0.540364D-03  0.666695D-01  0.212160D-01
     20  0.547528D-01 -0.652412D-04 -0.652582D-04  0.805147D-02  0.822819D-01
     21 -0.110754D-02  0.397342D-01 -0.774253D-05  0.955264D-03 -0.187547D-02
     22 -0.110782D-02 -0.774253D-05  0.397341D-01  0.955513D-03 -0.187596D-02
     23  0.136682D+00  0.955264D-03  0.955513D-03 -0.781482D-01  0.231453D+00
     24  0.855425D-02  0.735042D-05  0.735233D-05 -0.907122D-03  0.212137D-01
     25 -0.770278D-04  0.276245D-02  0.000000D+00  0.675466D-05 -0.182805D-03
     26 -0.770479D-04  0.000000D+00  0.276245D-02  0.675642D-05 -0.182853D-03
     27  0.950608D-02  0.675466D-05  0.675642D-05  0.192891D-02  0.225602D-01
     28 -0.366363D+01  0.366932D+00  0.366948D+00  0.133805D+01  0.257232D+00
     29  0.367539D+01 -0.246072D-01 -0.246083D-01 -0.897322D-01  0.837005D+00
     30  0.246072D-01  0.707328D+01 -0.362137D-02 -0.132050D-01 -0.638137D-02
     31  0.246083D-01 -0.362137D-02  0.707328D+01 -0.132056D-01 -0.638166D-02
     32  0.897322D-01 -0.132050D-01 -0.132056D-01  0.702875D+01 -0.232702D-01
     33  0.837005D+00  0.638137D-02  0.638166D-02  0.232702D-01  0.723172D+00
     34 -0.144965D-01  0.965620D+00 -0.970429D-04 -0.353859D-03 -0.796513D-02
     35 -0.144972D-01 -0.970429D-04  0.965620D+00 -0.353875D-03 -0.796550D-02
     36 -0.528627D-01 -0.353859D-03 -0.353875D-03  0.964427D+00 -0.290455D-01
               16            17            18            19            20 
     16  0.120596D+01
     17  0.000000D+00  0.120596D+01
     18  0.000000D+00  0.000000D+00  0.120596D+01
     19  0.256843D-02  0.256910D-02 -0.316972D+00  0.365490D+01
     20 -0.132934D-03 -0.132968D-03  0.164055D-01 -0.135538D+00  0.159492D+00
     21  0.171504D+00 -0.175725D-04  0.216808D-02  0.000000D+00  0.000000D+00
     22 -0.175725D-04  0.171504D+00  0.216864D-02  0.000000D+00  0.000000D+00
     23  0.216808D-02  0.216864D-02 -0.960430D-01  0.000000D+00  0.000000D+00
     24  0.444842D-04  0.444958D-04 -0.548984D-02  0.117904D-01  0.513380D-01
     25  0.167182D-01  0.000000D+00  0.390821D-04  0.000000D+00  0.000000D+00
     26  0.000000D+00  0.167182D-01  0.390923D-04  0.000000D+00  0.000000D+00
     27  0.390821D-04  0.390923D-04  0.118953D-01  0.000000D+00  0.000000D+00
     28  0.549329D-02  0.549354D-02  0.200317D-01 -0.202580D-01  0.140760D-01
     29  0.144965D-01  0.144972D-01  0.528627D-01 -0.900080D-01  0.552198D-01
     30  0.965620D+00 -0.970429D-04 -0.353859D-03 -0.218153D-03 -0.157972D-04
     31 -0.970429D-04  0.965620D+00 -0.353875D-03 -0.218281D-03 -0.158065D-04
     32 -0.353859D-03 -0.353875D-03  0.964427D+00  0.692573D-01  0.501517D-02
     33  0.796513D-02  0.796550D-02  0.290455D-01  0.138768D-01  0.826225D-01
     34  0.120532D+01 -0.736922D-04 -0.268712D-03  0.926541D-03 -0.376726D-04
     35 -0.736922D-04  0.120532D+01 -0.268725D-03  0.927086D-03 -0.376948D-04
     36 -0.268712D-03 -0.268725D-03  0.120441D+01 -0.294151D+00  0.119600D-01
               21            22            23            24            25 
     21  0.307817D+00
     22  0.000000D+00  0.307817D+00
     23  0.000000D+00  0.000000D+00  0.307817D+00
     24  0.000000D+00  0.000000D+00  0.000000D+00  0.428467D-01
     25  0.661980D-01  0.000000D+00  0.000000D+00  0.000000D+00  0.714113D-01
     26  0.000000D+00  0.661980D-01  0.000000D+00  0.000000D+00  0.000000D+00
     27  0.000000D+00  0.000000D+00  0.661980D-01  0.000000D+00  0.000000D+00
     28 -0.796072D-04 -0.796540D-04  0.252730D-01  0.163114D-02 -0.589692D-05
     29 -0.416569D-03 -0.416814D-03  0.132249D+00  0.849834D-02 -0.303133D-04
     30  0.376979D-01 -0.112822D-05  0.357967D-03  0.289263D-05  0.274756D-02
     31 -0.112822D-05  0.376979D-01  0.358178D-03  0.289433D-05  0.000000D+00
     32  0.357967D-03  0.358178D-03 -0.759455D-01 -0.918329D-03  0.270692D-05
     33 -0.721627D-03 -0.722052D-03  0.229096D+00  0.210810D-01 -0.719570D-04
     34  0.166793D+00 -0.266025D-05  0.844058D-03  0.175102D-04  0.166320D-01
     35 -0.266025D-05  0.166793D+00  0.844555D-03  0.175205D-04  0.000000D+00
     36  0.844058D-03  0.844555D-03 -0.101169D+00 -0.555898D-02  0.156655D-04
               26            27            28            29            30 
     26  0.714113D-01
     27  0.000000D+00  0.714113D-01
     28 -0.590039D-05  0.187211D-02  0.389908D+02
     29 -0.303311D-04  0.962361D-02 -0.375452D+01  0.370045D+01
     30  0.000000D+00  0.270692D-05  0.000000D+00  0.000000D+00  0.710468D+01
     31  0.274756D-02  0.270852D-05  0.000000D+00  0.000000D+00  0.000000D+00
     32  0.270852D-05  0.188820D-02  0.000000D+00  0.000000D+00  0.000000D+00
     33 -0.719993D-04  0.228443D-01  0.257510D+00  0.837738D+00  0.000000D+00
     34  0.000000D+00  0.156655D-04  0.000000D+00  0.000000D+00  0.966459D+00
     35  0.166320D-01  0.156747D-04  0.000000D+00  0.000000D+00  0.000000D+00
     36  0.156747D-04  0.116587D-01  0.000000D+00  0.000000D+00  0.000000D+00
               31            32            33            34            35 
     31  0.710468D+01
     32  0.000000D+00  0.710468D+01
     33  0.000000D+00  0.000000D+00  0.723575D+00
     34  0.000000D+00  0.000000D+00  0.000000D+00  0.120596D+01
     35  0.966459D+00  0.000000D+00  0.000000D+00  0.000000D+00  0.120596D+01
     36  0.000000D+00  0.966459D+00  0.000000D+00  0.000000D+00  0.000000D+00
               36 
     36  0.120596D+01
 Entering OneElI...
 Calculate potential energy integrals
    NBasis =  36  MinDer = 0  MaxDer = 0
 Requested accuracy = 0.1000D-12
 PrmmSu-InSpLW:  IPartL=    0 NPrtUS=    1 NPrtUL=    1 DoSpLW=F IThBeg=    0 IThEnd=    0 NThAct=    1.
 PrSmSu:  IncTry=   512 NBBP=            312 NTPThr=   100 NPartT=    1 Incr=           3 LDynOK=F GPUOK=F.
 PrsmSu:  NPrtUS=   1 ThrOK=F IAlg=2 LenDen=           0 ISkipM=0 DoSpLW=F IThBeg=    0 IThEnd=    0.
 Prism:   IPart=     0 DynPar=F LinDyn=F Incr=           3.
 PRISM was handed   671078844 working-precision words and    78 shell-pairs
 IPart=  0 NShTot=         312 NBatch=          78 AvBLen=         4.0
 PrSmSu:  NxtVal=              4.
 ***** Potential Energy ***** 
                1             2             3             4             5 
      1  0.255001D+02
      2  0.292262D+01  0.924374D+01
      3  0.112772D-01  0.118116D-01  0.803587D+01
      4  0.112799D-01  0.118133D-01  0.823892D-04  0.803587D+01
      5  0.540835D+00  0.262409D+01  0.448784D-02  0.448800D-02  0.992506D+01
      6  0.254950D+01  0.646404D+01  0.815566D-02  0.815684D-02  0.176789D+01
      7  0.129361D-02  0.386375D-02  0.368896D+01  0.197818D-04  0.154331D-02
      8  0.129390D-02  0.386426D-02  0.197818D-04  0.368896D+01  0.154337D-02
      9  0.832057D-01  0.937648D+00  0.154331D-02  0.154337D-02  0.432311D+01
     10  0.453218D+00  0.355524D+01  0.420178D-02  0.420197D-02  0.534121D+01
     11  0.150600D+01  0.567365D+01  0.668817D-02  0.668855D-02  0.827211D+01
     12  0.444746D-02  0.314540D-01  0.205330D+01  0.137516D-03  0.456199D-01
     13  0.444776D-02  0.314555D-01  0.137516D-03  0.205330D+01  0.456222D-01
     14 -0.211177D+01 -0.244679D+00 -0.107437D-02 -0.107450D-02 -0.607479D+00
     15  0.456298D+01  0.827714D+01  0.111450D-01  0.111461D-01  0.104583D+02
     16  0.817991D-02  0.187383D-01  0.538307D+01  0.948366D-04  0.223405D-01
     17  0.818151D-02  0.187398D-01  0.948366D-04  0.538307D+01  0.223421D-01
     18 -0.851308D+01 -0.178167D+01 -0.691475D-02 -0.691609D-02  0.239798D+00
     19  0.252688D+02  0.287453D+01  0.874753D-01  0.874978D-01  0.247105D+00
     20  0.293293D+01  0.921875D+01  0.348903D-01  0.348980D-01  0.253078D+01
     21 -0.901441D-01 -0.432530D-01  0.800782D+01 -0.339320D-03 -0.172452D-01
     22 -0.901679D-01 -0.432657D-01 -0.339336D-03  0.800782D+01 -0.172507D-01
     23  0.874968D+00  0.276343D+01  0.134354D-01  0.134379D-01  0.990417D+01
     24  0.254853D+01  0.645514D+01  0.179486D-01  0.179524D-01  0.172894D+01
     25 -0.120495D-01 -0.246242D-01  0.368586D+01 -0.600410D-04 -0.689592D-02
     26 -0.120527D-01 -0.246311D-01 -0.600461D-04  0.368586D+01 -0.689805D-02
     27  0.128101D+00  0.103061D+01  0.262730D-02  0.262763D-02  0.434324D+01
     28  0.410739D+00  0.354754D+01  0.221151D-01  0.221161D-01  0.530947D+01
     29  0.138781D+01  0.565225D+01  0.347553D-01  0.347570D-01  0.823549D+01
     30 -0.134026D-01 -0.320030D-01  0.201038D+01 -0.144812D-03 -0.577137D-01
     31 -0.134032D-01 -0.320043D-01 -0.144810D-03  0.201038D+01 -0.577162D-01
     32 -0.197829D+01 -0.502777D+00 -0.134038D-01 -0.134044D-01 -0.967130D+00
     33  0.436046D+01  0.823229D+01  0.460296D-01  0.460322D-01  0.104604D+02
     34 -0.379103D-01 -0.220176D-01  0.530441D+01 -0.134204D-03 -0.437977D-01
     35 -0.379109D-01 -0.220180D-01 -0.134197D-03  0.530441D+01 -0.437992D-01
     36 -0.827884D+01 -0.193883D+01 -0.285996D-01 -0.286019D-01 -0.531451D-01
                6             7             8             9            10 
      6  0.615650D+01
      7  0.373044D-02  0.418648D+01
      8  0.373092D-02  0.890443D-05  0.418648D+01
      9  0.917380D+00  0.858546D-03  0.858582D-03  0.453469D+01
     10  0.187823D+01  0.952188D-03  0.952232D-03  0.120147D+01  0.157686D+03
     11  0.314100D+01  0.155795D-02  0.155804D-02  0.197267D+01  0.127818D+02
     12  0.168393D-01  0.485431D+00  0.320713D-04  0.107761D-01  0.420933D+00
     13  0.168401D-01  0.320713D-04  0.485431D+00  0.107766D-01  0.420952D+00
     14 -0.198451D+00  0.196811D-04  0.196707D-04  0.373917D+00  0.143810D+01
     15  0.497016D+01  0.266699D-02  0.266721D-02  0.294105D+01  0.168767D+02
     16  0.109598D-01  0.157295D+01  0.223292D-04  0.628157D-02  0.352210D-01
     17  0.109608D-01  0.223292D-04  0.157295D+01  0.628199D-02  0.352226D-01
     18 -0.960476D+00 -0.719203D-03 -0.719376D-03  0.114427D+01  0.114970D+00
     19  0.251511D+01  0.116153D-01  0.116182D-01  0.421674D-01  0.364533D+00
     20  0.644455D+01  0.215187D-01  0.215238D-01  0.869860D+00  0.354104D+01
     21 -0.236432D-01  0.367699D+01 -0.682422D-04 -0.418017D-02 -0.386096D-01
     22 -0.236503D-01 -0.682471D-04  0.367699D+01 -0.418158D-02 -0.386205D-01
     23  0.184562D+01  0.521648D-02  0.521750D-02  0.430645D+01  0.527603D+01
     24  0.614790D+01  0.148521D-01  0.148555D-01  0.876606D+00  0.186729D+01
     25 -0.178643D-01  0.418279D+01 -0.381535D-04 -0.289528D-02 -0.897897D-02
     26 -0.178695D-01 -0.381561D-04  0.418279D+01 -0.289622D-02 -0.898151D-02
     27  0.987097D+00  0.203655D-02  0.203688D-02  0.453882D+01  0.122799D+01
     28  0.187222D+01  0.506238D-02  0.506261D-02  0.121264D+01  0.154956D+03
     29  0.312663D+01  0.842983D-02  0.843023D-02  0.198957D+01  0.129628D+02
     30 -0.173218D-01  0.482942D+00 -0.233068D-04 -0.110849D-01 -0.182070D+01
     31 -0.173225D-01 -0.233065D-04  0.482942D+00 -0.110854D-01 -0.182079D+01
     32 -0.316423D+00 -0.834807D-03 -0.834855D-03  0.292383D+00 -0.673446D+01
     33  0.494622D+01  0.129943D-01  0.129949D-01  0.296790D+01  0.168689D+02
     34 -0.119693D-01  0.156554D+01 -0.167768D-04 -0.732227D-02 -0.183575D+00
     35 -0.119694D-01 -0.167755D-04  0.156554D+01 -0.732247D-02 -0.183583D+00
     36 -0.102566D+01 -0.283483D-02 -0.283510D-02  0.108489D+01 -0.682853D+00
               11            12            13            14            15 
     11  0.337903D+02
     12  0.176268D+00  0.366740D+02
     13  0.176277D+00  0.733180D-02  0.366740D+02
     14  0.299687D-01  0.257362D-01  0.257372D-01  0.370139D+02
     15  0.224806D+02  0.133275D+00  0.133281D+00 -0.968055D-01  0.230524D+02
     16  0.458925D-01  0.126690D+02  0.104537D-02  0.288338D-02  0.482484D-01
     17  0.458949D-01  0.104537D-02  0.126690D+02  0.288332D-02  0.482515D-01
     18 -0.198535D+00  0.288338D-02  0.288332D-02  0.129140D+02 -0.934804D+00
     19  0.128701D+01  0.178463D-01  0.178503D-01 -0.184183D+01  0.421802D+01
     20  0.564821D+01  0.333047D-01  0.333068D-01 -0.318681D+00  0.821994D+01
     21 -0.606108D-01  0.198127D+01 -0.391780D-03  0.212008D-01 -0.793010D-01
     22 -0.606279D-01 -0.391858D-03  0.198127D+01  0.212064D-01 -0.793234D-01
     23  0.821489D+01  0.659534D-01  0.659611D-01 -0.670064D+00  0.104852D+02
     24  0.312304D+01  0.180255D-01  0.180267D-01 -0.201770D+00  0.494337D+01
     25 -0.148811D-01  0.482557D+00 -0.632093D-04  0.107871D-02 -0.226404D-01
     26 -0.148853D-01 -0.632280D-04  0.482557D+00  0.107898D-02 -0.226468D-01
     27  0.201685D+01  0.118430D-01  0.118438D-01  0.365417D+00  0.301031D+01
     28  0.129440D+02  0.182040D+01  0.182048D+01  0.654569D+01  0.168593D+02
     29  0.337035D+02  0.272597D+00  0.272610D+00  0.396047D+00  0.224403D+02
     30 -0.270620D+00  0.365594D+02 -0.137573D-01 -0.428378D-01 -0.215143D+00
     31 -0.270632D+00 -0.137573D-01  0.365594D+02 -0.428399D-01 -0.215152D+00
     32 -0.158029D+01 -0.581637D-01 -0.581666D-01  0.366330D+02 -0.134187D+01
     33  0.224640D+02  0.216918D+00  0.216928D+00  0.214147D+00  0.230208D+02
     34 -0.202590D+00  0.126566D+02 -0.146024D-02  0.231518D-03 -0.150534D+00
     35 -0.202598D+00 -0.146023D-02  0.126566D+02  0.231342D-03 -0.150540D+00
     36 -0.110066D+01 -0.739217D-02 -0.739272D-02  0.128861D+02 -0.163421D+01
               16            17            18            19            20 
     16  0.159940D+02
     17  0.381513D-03  0.159940D+02
     18 -0.285028D-02 -0.285130D-02  0.170396D+02
     19  0.621433D-01  0.621591D-01 -0.810185D+01  0.252439D+02
     20  0.281550D-01  0.281590D-01 -0.188018D+01  0.287927D+01  0.919658D+01
     21  0.525268D+01 -0.416487D-03  0.453896D-01 -0.129748D-01 -0.201897D-01
     22 -0.416525D-03  0.525268D+01  0.454019D-01 -0.129785D-01 -0.201963D-01
     23  0.606670D-01  0.606785D-01 -0.244396D-01  0.579258D+00  0.267075D+01
     24  0.150653D-01  0.150673D-01 -0.970607D+00  0.251456D+01  0.643635D+01
     25  0.156438D+01 -0.542135D-04  0.424715D-02 -0.155146D-02 -0.689692D-02
     26 -0.542237D-04  0.156438D+01  0.424827D-02 -0.155191D-02 -0.689921D-02
     27  0.897595D-02  0.897704D-02  0.111272D+01  0.864947D-01  0.962672D+00
     28  0.183491D+00  0.183499D+00  0.656339D+00  0.329561D+00  0.353050D+01
     29  0.203386D+00  0.203396D+00  0.391518D+00  0.118343D+01  0.562343D+01
     30  0.126417D+02 -0.144704D-02 -0.393247D-02  0.162895D-02 -0.298529D-01
     31 -0.144703D-02  0.126417D+02 -0.393281D-02  0.163186D-02 -0.298536D-01
     32 -0.112981D-01 -0.112988D-01  0.128289D+02 -0.172024D+01 -0.574021D+00
     33  0.153704D+00  0.153712D+00 -0.524778D+00  0.402615D+01  0.817286D+01
     34  0.159715D+02 -0.812125D-03  0.264559D-02  0.170626D-01 -0.123812D-01
     35 -0.812113D-03  0.159715D+02  0.264487D-02  0.170757D-01 -0.123790D-01
     36 -0.116972D-01 -0.116986D-01  0.169864D+02 -0.786632D+01 -0.203583D+01
               21            22            23            24            25 
     21  0.798391D+01
     22  0.131259D-03  0.798391D+01
     23 -0.109351D-01 -0.109389D-01  0.989549D+01
     24 -0.138270D-01 -0.138316D-01  0.180682D+01  0.613973D+01
     25  0.367455D+01  0.364967D-04 -0.370444D-02 -0.671667D-02  0.417953D+01
     26  0.364967D-04  0.367455D+01 -0.370575D-02 -0.671891D-02  0.182218D-04
     27 -0.370444D-02 -0.370575D-02  0.432872D+01  0.946284D+00 -0.205459D-02
     28 -0.206213D-01 -0.206312D-01  0.524377D+01  0.186121D+01 -0.486066D-02
     29 -0.323048D-01 -0.323203D-01  0.817528D+01  0.310855D+01 -0.797281D-02
     30  0.194077D+01  0.245411D-03 -0.364554D-01 -0.159433D-01  0.480230D+00
     31  0.245331D-03  0.194077D+01 -0.364525D-01 -0.159437D-01  0.650393D-04
     32  0.113651D-01  0.113708D-01 -0.102205D+01 -0.319005D+00  0.839085D-03
     33 -0.440021D-01 -0.440226D-01  0.104815D+02  0.491924D+01 -0.122462D-01
     34  0.517559D+01  0.886850D-04 -0.552821D-02 -0.775983D-02  0.155703D+01
     35  0.886387D-04  0.517559D+01 -0.551976D-02 -0.775889D-02  0.354634D-04
     36  0.246518D-01  0.246633D-01 -0.310848D+00 -0.103527D+01  0.244256D-02
               26            27            28            29            30 
     26  0.417953D+01
     27 -0.205531D-02  0.454439D+01
     28 -0.486301D-02  0.123892D+01  0.157630D+03
     29 -0.797667D-02  0.203329D+01  0.127699D+02  0.337347D+02
     30  0.650583D-04 -0.104902D-01 -0.420649D+00 -0.174476D+00  0.366227D+02
     31  0.480230D+00 -0.104904D-01 -0.420668D+00 -0.174483D+00  0.732808D-02
     32  0.839474D-03  0.282210D+00 -0.162572D+01 -0.121695D+01  0.269576D-01
     33 -0.122521D-01  0.303642D+01  0.168665D+02  0.224399D+02 -0.131570D+00
     34  0.354750D-04 -0.492448D-02 -0.351816D-01 -0.448221D-01  0.126459D+02
     35  0.155703D+01 -0.492402D-02 -0.351832D-01 -0.448239D-01  0.104191D-02
     36  0.244367D-02  0.105237D+01 -0.141054D+00 -0.510198D+00  0.401872D-02
               31            32            33            34            35 
     31  0.366227D+02
     32  0.269586D-01  0.369495D+02
     33 -0.131575D+00 -0.103210D+01  0.230004D+02
     34  0.104191D-02  0.401872D-02 -0.449543D-01  0.159603D+02
     35  0.126459D+02  0.401873D-02 -0.449554D-01  0.365650D-03  0.159603D+02
     36  0.401873D-02  0.128788D+02 -0.122503D+01  0.227345D-02  0.227271D-02
               36 
     36  0.169742D+02
 ****** Core Hamiltonian ****** 
                1             2             3             4             5 
      1 -0.218452D+02
      2 -0.305815D+01 -0.908424D+01
      3 -0.112772D-01 -0.118116D-01 -0.772805D+01
      4 -0.112799D-01 -0.118133D-01 -0.823892D-04 -0.772805D+01
      5 -0.540835D+00 -0.262409D+01 -0.448784D-02 -0.448800D-02 -0.961725D+01
      6 -0.253771D+01 -0.641270D+01 -0.815566D-02 -0.815684D-02 -0.176789D+01
      7 -0.129361D-02 -0.386375D-02 -0.362276D+01 -0.197818D-04 -0.154331D-02
      8 -0.129390D-02 -0.386426D-02 -0.197818D-04 -0.362276D+01 -0.154337D-02
      9 -0.832057D-01 -0.937648D+00 -0.154331D-02 -0.154337D-02 -0.425691D+01
     10 -0.478077D+00 -0.354123D+01 -0.420178D-02 -0.420197D-02 -0.531256D+01
     11 -0.160424D+01 -0.561997D+01 -0.668817D-02 -0.668855D-02 -0.812839D+01
     12 -0.444746D-02 -0.314540D-01 -0.201019D+01 -0.137516D-03 -0.456199D-01
     13 -0.444776D-02 -0.314555D-01 -0.137516D-03 -0.201019D+01 -0.456222D-01
     14  0.217245D+01  0.257697D+00  0.107437D-02  0.107450D-02  0.526215D+00
     15 -0.452936D+01 -0.819560D+01 -0.111450D-01 -0.111461D-01 -0.102234D+02
     16 -0.817991D-02 -0.187383D-01 -0.520412D+01 -0.948366D-04 -0.223405D-01
     17 -0.818151D-02 -0.187398D-01 -0.948366D-04 -0.520412D+01 -0.223421D-01
     18  0.815984D+01  0.180497D+01  0.691475D-02  0.691609D-02 -0.327311D+00
     19 -0.216766D+02 -0.300959D+01 -0.818242D-01 -0.818452D-01 -0.266190D+00
     20 -0.306799D+01 -0.905935D+01 -0.345723D-01 -0.345799D-01 -0.253185D+01
     21  0.844929D-01  0.429350D-01 -0.770014D+01  0.321639D-03  0.173049D-01
     22  0.845152D-01  0.429476D-01  0.321655D-03 -0.770014D+01  0.173104D-01
     23 -0.855882D+00 -0.276236D+01 -0.133757D-01 -0.133782D-01 -0.959667D+01
     24 -0.253674D+01 -0.640381D+01 -0.177725D-01 -0.177762D-01 -0.172953D+01
     25  0.119472D-01  0.242775D-01 -0.361967D+01  0.590059D-04  0.689941D-02
     26  0.119504D-01  0.242844D-01  0.590110D-04 -0.361967D+01  0.690155D-02
     27 -0.127756D+00 -0.102944D+01 -0.262381D-02 -0.262414D-02 -0.427706D+01
     28 -0.433751D+00 -0.353346D+01 -0.219804D-01 -0.219814D-01 -0.528221D+01
     29 -0.148300D+01 -0.559782D+01 -0.340676D-01 -0.340692D-01 -0.809638D+01
     30  0.137234D-01  0.320512D-01 -0.196950D+01  0.141874D-03  0.571196D-01
     31  0.137239D-01  0.320525D-01  0.141873D-03 -0.196950D+01  0.571220D-01
     32  0.204317D+01  0.512519D+00  0.128097D-01  0.128103D-01  0.887846D+00
     33 -0.433508D+01 -0.815024D+01 -0.448792D-01 -0.448818D-01 -0.102277D+02
     34  0.362815D-01  0.221106D-01 -0.513033D+01  0.127671D-03  0.424763D-01
     35  0.362820D-01  0.221110D-01  0.127664D-03 -0.513033D+01  0.424778D-01
     36  0.794938D+01  0.195763D+01  0.272782D-01  0.272805D-01 -0.400368D-01
                6             7             8             9            10 
      6 -0.611365D+01
      7 -0.373044D-02 -0.411507D+01
      8 -0.373092D-02 -0.890443D-05 -0.411507D+01
      9 -0.917380D+00 -0.858546D-03 -0.858582D-03 -0.446328D+01
     10 -0.187657D+01 -0.952188D-03 -0.952232D-03 -0.119965D+01 -0.118695D+03
     11 -0.313236D+01 -0.155795D-02 -0.155804D-02 -0.196334D+01 -0.165363D+02
     12 -0.168393D-01 -0.482646D+00 -0.320713D-04 -0.107761D-01 -0.420933D+00
     13 -0.168401D-01 -0.320713D-04 -0.482646D+00 -0.107766D-01 -0.420952D+00
     14  0.197562D+00 -0.196811D-04 -0.196707D-04 -0.371927D+00 -0.143810D+01
     15 -0.494874D+01 -0.266699D-02 -0.266721D-02 -0.291893D+01 -0.166192D+02
     16 -0.109598D-01 -0.155610D+01 -0.223292D-04 -0.628157D-02 -0.352210D-01
     17 -0.109608D-01 -0.223292D-04 -0.155610D+01 -0.628199D-02 -0.352226D-01
     18  0.955094D+00  0.719203D-03  0.719376D-03 -0.113201D+01 -0.114970D+00
     19 -0.250332D+01 -0.115130D-01 -0.115159D-01 -0.425128D-01 -0.386570D+00
     20 -0.639322D+01 -0.211721D-01 -0.211771D-01 -0.871031D+00 -0.352695D+01
     21  0.234671D-01 -0.361080D+01  0.672071D-04  0.418366D-02  0.383945D-01
     22  0.234741D-01  0.672120D-04 -0.361080D+01  0.418508D-02  0.384054D-01
     23 -0.184502D+01 -0.521299D-02 -0.521400D-02 -0.424027D+01 -0.524948D+01
     24 -0.610506D+01 -0.146621D-01 -0.146654D-01 -0.877248D+00 -0.186565D+01
     25  0.176743D-01 -0.411138D+01  0.374456D-04  0.289767D-02  0.896398D-02
     26  0.176794D-01  0.374482D-04 -0.411138D+01  0.289861D-02  0.896652D-02
     27 -0.986455D+00 -0.203416D-02 -0.203449D-02 -0.446742D+01 -0.122614D+01
     28 -0.187057D+01 -0.505330D-02 -0.505353D-02 -0.121081D+01 -0.118484D+03
     29 -0.311804D+01 -0.838315D-02 -0.838354D-02 -0.198013D+01 -0.166264D+02
     30  0.173173D-01 -0.480172D+00  0.232867D-04  0.110809D-01  0.145377D+01
     31  0.173180D-01  0.232865D-04 -0.480172D+00  0.110813D-01  0.145384D+01
     32  0.315522D+00  0.830753D-03  0.830801D-03 -0.290433D+00  0.539642D+01
     33 -0.492494D+01 -0.128835D-01 -0.128842D-01 -0.294549D+01 -0.166116D+02
     34  0.119423D-01 -0.154877D+01  0.166608D-04  0.729881D-02  0.178081D+00
     35  0.119424D-01  0.166595D-04 -0.154877D+01  0.729902D-02  0.178090D+00
     36  0.102021D+01  0.281138D-02  0.281165D-02 -0.107287D+01  0.662821D+00
               11            12            13            14            15 
     11 -0.300899D+02
     12 -0.176268D+00 -0.295693D+02
     13 -0.176277D+00 -0.733180D-02 -0.295693D+02
     14 -0.299687D-01 -0.257362D-01 -0.257372D-01 -0.299092D+02
     15 -0.216429D+02 -0.133275D+00 -0.133281D+00  0.968055D-01 -0.223288D+02
     16 -0.458925D-01 -0.117026D+02 -0.104537D-02 -0.288338D-02 -0.482484D-01
     17 -0.458949D-01 -0.104537D-02 -0.117026D+02 -0.288332D-02 -0.482515D-01
     18  0.198535D+00 -0.288338D-02 -0.288332D-02 -0.119475D+02  0.934804D+00
     19 -0.138045D+01 -0.183866D-01 -0.183907D-01  0.190850D+01 -0.419681D+01
     20 -0.559345D+01 -0.333700D-01 -0.333721D-01  0.326732D+00 -0.813766D+01
     21  0.595033D-01 -0.194154D+01  0.384038D-03 -0.202455D-01  0.774256D-01
     22  0.595201D-01  0.384116D-03 -0.194154D+01 -0.202509D-01  0.774475D-01
     23 -0.807820D+01 -0.649982D-01 -0.650056D-01  0.591916D+00 -0.102538D+02
     24 -0.311449D+01 -0.180181D-01 -0.180193D-01  0.200863D+00 -0.492215D+01
     25  0.148041D-01 -0.479794D+00  0.631546D-04 -0.107196D-02  0.224576D-01
     26  0.148083D-01  0.631733D-04 -0.479794D+00 -0.107222D-02  0.224639D-01
     27 -0.200735D+01 -0.118362D-01 -0.118370D-01 -0.363488D+00 -0.298775D+01
     28 -0.166076D+02 -0.145347D+01 -0.145353D+01 -0.520764D+01 -0.166020D+02
     29 -0.300281D+02 -0.297204D+00 -0.297218D+00 -0.485779D+00 -0.216033D+02
     30  0.295227D+00 -0.294861D+02  0.101360D-01  0.296327D-01  0.208761D+00
     31  0.295240D+00  0.101360D-01 -0.294861D+02  0.296343D-01  0.208770D+00
     32  0.167003D+01  0.449587D-01  0.449609D-01 -0.296043D+02  0.131860D+01
     33 -0.216269D+02 -0.210536D+00 -0.210546D+00 -0.190877D+00 -0.222976D+02
     34  0.188093D+00 -0.116910D+02  0.136320D-02 -0.585377D-03  0.142569D+00
     35  0.188101D+00  0.136319D-02 -0.116910D+02 -0.585217D-03  0.142574D+00
     36  0.104780D+01  0.703832D-02  0.703885D-02 -0.119217D+02  0.160516D+01
               16            17            18            19            20 
     16 -0.147880D+02
     17 -0.381513D-03 -0.147880D+02
     18  0.285028D-02  0.285130D-02 -0.158336D+02
     19 -0.595749D-01 -0.595900D-01  0.778487D+01 -0.215890D+02
     20 -0.282880D-01 -0.282920D-01  0.189658D+01 -0.301481D+01 -0.903708D+01
     21 -0.508118D+01  0.398914D-03 -0.432215D-01  0.129748D-01  0.201897D-01
     22  0.398952D-03 -0.508118D+01 -0.432332D-01  0.129785D-01  0.201963D-01
     23 -0.584989D-01 -0.585099D-01 -0.716034D-01 -0.579258D+00 -0.267075D+01
     24 -0.150208D-01 -0.150228D-01  0.965117D+00 -0.250277D+01 -0.638501D+01
     25 -0.154766D+01  0.538967D-04 -0.420807D-02  0.155146D-02  0.689692D-02
     26  0.539069D-04 -0.154766D+01 -0.420918D-02  0.155191D-02  0.689921D-02
     27 -0.893686D-02 -0.893795D-02 -0.110082D+01 -0.864947D-01 -0.962672D+00
     28 -0.177998D+00 -0.178006D+00 -0.636308D+00 -0.349819D+00 -0.351643D+01
     29 -0.188890D+00 -0.188899D+00 -0.338655D+00 -0.127344D+01 -0.556821D+01
     30 -0.116761D+02  0.135000D-02  0.357861D-02 -0.184710D-02  0.298371D-01
     31  0.134999D-02 -0.116761D+02  0.357893D-02 -0.185014D-02  0.298378D-01
     32  0.109442D-01  0.109449D-01 -0.118645D+02  0.178950D+01  0.579036D+00
     33 -0.145739D+00 -0.145747D+00  0.553823D+00 -0.401227D+01 -0.809024D+01
     34 -0.147661D+02  0.738433D-03 -0.291430D-02 -0.161361D-01  0.123435D-01
     35  0.738421D-03 -0.147661D+02 -0.291359D-02 -0.161486D-01  0.123413D-01
     36  0.114285D-01  0.114299D-01 -0.157820D+02  0.757217D+01  0.204779D+01
               21            22            23            24            25 
     21 -0.767609D+01
     22 -0.131259D-03 -0.767609D+01
     23  0.109351D-01  0.109389D-01 -0.958768D+01
     24  0.138270D-01  0.138316D-01 -0.180682D+01 -0.609689D+01
     25 -0.360835D+01 -0.364967D-04  0.370444D-02  0.671667D-02 -0.410812D+01
     26 -0.364967D-04 -0.360835D+01  0.370575D-02  0.671891D-02 -0.182218D-04
     27  0.370444D-02  0.370575D-02 -0.426253D+01 -0.946284D+00  0.205459D-02
     28  0.205417D-01  0.205516D-01 -0.521850D+01 -0.185957D+01  0.485476D-02
     29  0.318882D-01  0.319035D-01 -0.804303D+01 -0.310005D+01  0.794250D-02
     30 -0.190307D+01 -0.246539D-03  0.368133D-01  0.159462D-01 -0.477483D+00
     31 -0.246459D-03 -0.190307D+01  0.368106D-01  0.159466D-01 -0.650478D-04
     32 -0.110072D-01 -0.110126D-01  0.946106D+00  0.318087D+00 -0.836378D-03
     33  0.432805D-01  0.433006D-01 -0.102524D+02 -0.489816D+01  0.121743D-01
     34 -0.500880D+01 -0.913452D-04  0.637227D-02  0.777734D-02 -0.154040D+01
     35 -0.912989D-04 -0.500880D+01  0.636431D-02  0.777641D-02 -0.355128D-04
     36 -0.238077D-01 -0.238188D-01  0.209679D+00  0.102971D+01 -0.242689D-02
               26            27            28            29            30 
     26 -0.410812D+01
     27  0.205531D-02 -0.447298D+01
     28  0.485711D-02 -0.123705D+01 -0.118639D+03
     29  0.794634D-02 -0.202366D+01 -0.165244D+02 -0.300342D+02
     30 -0.650668D-04  0.104929D-01  0.420649D+00  0.174476D+00 -0.295180D+02
     31 -0.477483D+00  0.104931D-01  0.420668D+00  0.174483D+00 -0.732808D-02
     32 -0.836765D-03 -0.280322D+00  0.162572D+01  0.121695D+01 -0.269576D-01
     33  0.121801D-01 -0.301358D+01 -0.166090D+02 -0.216022D+02  0.131570D+00
     34 -0.355244D-04  0.494015D-02  0.351816D-01  0.448221D-01 -0.116794D+02
     35 -0.154040D+01  0.493969D-02  0.351832D-01  0.448239D-01 -0.104191D-02
     36 -0.242800D-02 -0.104072D+01  0.141054D+00  0.510198D+00 -0.401872D-02
               31            32            33            34            35 
     31 -0.295180D+02
     32 -0.269586D-01 -0.298448D+02
     33  0.131575D+00  0.103210D+01 -0.222768D+02
     34 -0.104191D-02 -0.401872D-02  0.449543D-01 -0.147544D+02
     35 -0.116794D+02 -0.401873D-02  0.449554D-01 -0.365650D-03 -0.147544D+02
     36 -0.401873D-02 -0.119123D+02  0.122503D+01 -0.227345D-02 -0.227271D-02
               36 
     36 -0.157683D+02
 SVDSVc IOpt=   1 NormSV=T IR=1
 SVDSVc V= 5.17D+00 3.77D+00 3.77D+00 3.71D+00 3.01D+00 2.52D+00 2.51D+00 2.33D+00 1.80D+00 1.69D+00
 SVDSVc V= 1.09D+00 1.09D+00 8.15D-01 7.80D-01 6.21D-01 6.21D-01 4.75D-01 1.97D-01 1.50D-02 3.71D-03
 SVDSVc V= 2.84D-03 2.00D-03 1.98D-03 5.61D-04 3.63D-04 2.90D-04 2.73D-04 1.84D-04 1.56D-04 1.51D-04
 SVDSVc V= 6.21D-05 3.29D-05 3.28D-05 2.87D-05 2.81D-12 1.18D-14
 TstOVc:  Largest diagonal error= 7.75D-12 IB=1 I=   34.
 TstOVc:  Largest same sym error= 6.47D-12 IB=1 I=   33 J=   32.
 Orthogonalized basis functions: 
                 1             2             3             4             5 
      1   0.570781D-01  0.000000D+00 -0.687554D-03 -0.120377D+00 -0.106999D+00
      2   0.128846D+00  0.000000D+00 -0.571002D-03 -0.123453D+00  0.142312D+00
      3   0.242502D-03  0.153142D+00  0.153125D+00 -0.585219D-03  0.518620D-04
      4   0.242508D-03 -0.153122D+00  0.153145D+00 -0.585490D-03  0.519217D-04
      5   0.105138D+00  0.000000D+00  0.209741D-03  0.156003D+00 -0.114306D+00
      6   0.109550D+00  0.000000D+00 -0.303687D-03 -0.121084D+00  0.160685D+00
      7   0.109332D-03  0.123738D+00  0.123727D+00 -0.375145D-03  0.444050D-03
      8   0.109327D-03 -0.123723D+00  0.123743D+00 -0.375347D-03  0.444199D-03
      9   0.623180D-01  0.000000D+00  0.335983D-03  0.142481D+00 -0.940567D-01
     10   0.471327D-01  0.000000D+00 -0.111730D-02  0.234415D-01 -0.172189D-01
     11   0.132748D+00  0.000000D+00 -0.112416D-02  0.513971D-01 -0.241514D-01
     12   0.523137D-03  0.930272D-01  0.930018D-01  0.110850D-03 -0.590514D-03
     13   0.523171D-03 -0.930152D-01  0.930138D-01  0.110745D-03 -0.590723D-03
     14  -0.946081D-02  0.000000D+00  0.242863D-03  0.110035D+00  0.210320D+00
     15   0.172505D+00  0.000000D+00 -0.938310D-03  0.402472D-01 -0.144812D-01
     16   0.549052D-03  0.138113D+00  0.138092D+00 -0.533320D-04 -0.527012D-03
     17   0.549096D-03 -0.138095D+00  0.138109D+00 -0.535037D-04 -0.527214D-03
     18  -0.192270D-01  0.000000D+00  0.502045D-03  0.171169D+00  0.205000D+00
     19   0.547545D-01  0.000000D+00  0.747519D-03 -0.120288D+00 -0.101422D+00
     20   0.127759D+00  0.000000D+00  0.624666D-03 -0.126240D+00  0.142809D+00
     21  -0.566690D-03  0.152338D+00  0.152320D+00  0.232696D-03  0.415326D-03
     22  -0.566893D-03 -0.152318D+00  0.152340D+00  0.232639D-03  0.415481D-03
     23   0.106608D+00  0.000000D+00  0.681667D-03  0.151919D+00 -0.116391D+00
     24   0.108983D+00  0.000000D+00  0.351553D-03 -0.122358D+00  0.161525D+00
     25  -0.304558D-03  0.123680D+00  0.123669D+00  0.325969D-04 -0.387218D-04
     26  -0.304670D-03 -0.123664D+00  0.123685D+00  0.325007D-04 -0.386983D-04
     27   0.636410D-01  0.000000D+00  0.370483D-03  0.140940D+00 -0.926176D-01
     28   0.467349D-01  0.000000D+00  0.110444D-02  0.281850D-01 -0.659754D-02
     29   0.132213D+00  0.000000D+00  0.108218D-02  0.560744D-01 -0.159065D-01
     30  -0.480259D-03  0.928724D-01  0.928473D-01 -0.469306D-03 -0.251280D-03
     31  -0.480271D-03 -0.928604D-01  0.928593D-01 -0.469436D-03 -0.251473D-03
     32  -0.130256D-01  0.000000D+00  0.157390D-03  0.107513D+00  0.210851D+00
     33   0.171998D+00  0.000000D+00  0.892424D-03  0.443334D-01 -0.954114D-02
     34  -0.474936D-03  0.137603D+00  0.137582D+00 -0.422401D-03 -0.161089D-03
     35  -0.474939D-03 -0.137585D+00  0.137600D+00 -0.422588D-03 -0.161274D-03
     36  -0.228846D-01  0.000000D+00  0.219688D-03  0.168198D+00  0.205314D+00
                 6             7             8             9            10 
      1   0.000000D+00 -0.407558D-04 -0.289700D-01  0.381317D+00  0.151697D+00
      2   0.000000D+00  0.699956D-03 -0.896596D-01 -0.745326D-01  0.231086D-01
      3  -0.108841D+00 -0.108829D+00  0.299854D-03  0.848168D-03  0.527583D-04
      4   0.108837D+00 -0.108833D+00  0.300000D-03  0.848399D-03  0.527697D-04
      5   0.000000D+00 -0.771061D-03 -0.121316D+00 -0.212619D-01  0.384894D-02
      6   0.000000D+00  0.504364D-03 -0.127503D+00 -0.108757D+00  0.622567D-01
      7  -0.166951D+00 -0.166944D+00  0.188013D-03 -0.676756D-04 -0.232494D-03
      8   0.166945D+00 -0.166950D+00  0.188195D-03 -0.676651D-04 -0.232642D-03
      9   0.000000D+00 -0.540614D-03 -0.236334D+00 -0.415270D-01  0.170925D+00
     10   0.000000D+00 -0.325299D-02  0.258602D+00 -0.153051D+00  0.410350D+00
     11   0.000000D+00 -0.200944D-02  0.210479D+00  0.303098D-01 -0.203269D+00
     12   0.204020D+00  0.203996D+00  0.287355D-02 -0.159466D-02  0.314885D-02
     13  -0.204012D+00  0.204003D+00  0.287367D-02 -0.159498D-02  0.314891D-02
     14   0.000000D+00  0.561800D-03  0.216310D-01  0.288478D+00  0.113098D+00
     15   0.000000D+00 -0.895622D-03  0.850107D-01  0.587739D-01 -0.123743D+00
     16   0.133333D+00  0.133339D+00  0.105703D-02  0.596435D-03 -0.571981D-03
     17  -0.133328D+00  0.133343D+00  0.105708D-02  0.596469D-03 -0.571994D-03
     18   0.000000D+00  0.361180D-03  0.183382D-02 -0.427656D-02 -0.159388D-01
     19   0.000000D+00 -0.223870D-03 -0.292442D-01  0.383948D+00  0.155493D+00
     20   0.000000D+00 -0.595007D-03 -0.866354D-01 -0.749491D-01  0.213898D-01
     21  -0.110267D+00 -0.110256D+00  0.652928D-04 -0.800326D-03 -0.701287D-04
     22   0.110263D+00 -0.110260D+00  0.653785D-04 -0.800523D-03 -0.701509D-04
     23   0.000000D+00  0.616025D-04 -0.123595D+00 -0.163931D-01  0.729454D-02
     24   0.000000D+00 -0.379845D-03 -0.125372D+00 -0.108380D+00  0.607165D-01
     25  -0.167047D+00 -0.167040D+00  0.505562D-03  0.120989D-03 -0.351920D-03
     26   0.167041D+00 -0.167046D+00  0.505826D-03  0.121049D-03 -0.352099D-03
     27   0.000000D+00 -0.484174D-03 -0.237568D+00 -0.422961D-01  0.171520D+00
     28   0.000000D+00  0.320156D-02  0.259275D+00 -0.131317D+00  0.418243D+00
     29   0.000000D+00  0.197378D-02  0.210855D+00  0.380287D-01 -0.200812D+00
     30   0.204191D+00  0.204168D+00 -0.286047D-02  0.639446D-03 -0.349201D-02
     31  -0.204184D+00  0.204175D+00 -0.286061D-02  0.639223D-03 -0.349226D-02
     32   0.000000D+00  0.658491D-03  0.657768D-03  0.300138D+00  0.902568D-01
     33   0.000000D+00  0.883532D-03  0.849687D-01  0.587262D-01 -0.124034D+00
     34   0.133911D+00  0.133916D+00 -0.102291D-02 -0.478555D-03  0.644656D-03
     35  -0.133906D+00  0.133921D+00 -0.102296D-02 -0.478577D-03  0.644695D-03
     36   0.000000D+00  0.681664D-03 -0.534988D-02  0.183208D-03 -0.829386D-02
                11            12            13            14            15 
      1   0.209240D-02  0.000000D+00  0.293173D+00 -0.104094D+00 -0.307152D-02
      2   0.000000D+00  0.000000D+00 -0.741533D-01  0.134059D-01 -0.145613D-02
      3  -0.142709D+00 -0.142743D+00  0.330499D-04 -0.115617D-02  0.417066D+00
      4  -0.142723D+00  0.142729D+00  0.330576D-04 -0.115674D-02  0.417095D+00
      5   0.377980D-03  0.000000D+00  0.877033D-01  0.480359D+00  0.365366D-02
      6  -0.627586D-03  0.000000D+00  0.441692D-01 -0.539960D-02  0.106430D-02
      7   0.242365D+00  0.242411D+00  0.477621D-03  0.611000D-03 -0.306096D+00
      8   0.242388D+00 -0.242388D+00  0.477793D-03  0.611407D-03 -0.306117D+00
      9   0.848670D-03  0.000000D+00 -0.175446D+00 -0.441463D+00 -0.845970D-03
     10  -0.880118D-02  0.000000D+00  0.520050D-01  0.355412D-01 -0.898525D-02
     11  -0.560452D-03  0.000000D+00 -0.158492D+00 -0.352015D+00  0.149480D-02
     12   0.290697D+00  0.290767D+00  0.416902D-03 -0.215857D-02  0.182609D+00
     13   0.290724D+00 -0.290739D+00  0.417284D-03 -0.215881D-02  0.182621D+00
     14   0.776255D-03  0.000000D+00 -0.400694D+00  0.146628D+00  0.927194D-03
     15   0.171507D-02  0.000000D+00  0.915453D-01  0.144946D+00  0.194917D-02
     16  -0.257861D+00 -0.257901D+00 -0.750757D-03 -0.112063D-02 -0.310424D+00
     17  -0.257885D+00  0.257876D+00 -0.751268D-03 -0.112053D-02 -0.310445D+00
     18  -0.126355D-02  0.000000D+00  0.528872D+00 -0.172550D+00  0.127804D-02
     19  -0.224108D-02  0.000000D+00  0.304217D+00 -0.125286D+00  0.333149D-02
     20   0.905921D-05  0.000000D+00 -0.782765D-01  0.102235D-01  0.109360D-02
     21  -0.139927D+00 -0.139964D+00 -0.554618D-03 -0.245251D-03  0.424614D+00
     22  -0.139940D+00  0.139950D+00 -0.554758D-03 -0.245587D-03  0.424643D+00
     23  -0.124895D-02  0.000000D+00  0.791898D-01  0.484758D+00 -0.768788D-03
     24   0.656253D-03  0.000000D+00  0.457533D-01 -0.143071D-02 -0.553773D-03
     25   0.242641D+00  0.242687D+00  0.364577D-03  0.658131D-03 -0.305437D+00
     26   0.242664D+00 -0.242664D+00  0.364721D-03  0.658551D-03 -0.305458D+00
     27   0.687290D-03  0.000000D+00 -0.176625D+00 -0.441129D+00 -0.123198D-02
     28   0.884319D-02  0.000000D+00 -0.338694D-02  0.576904D-01  0.884031D-02
     29   0.561617D-03  0.000000D+00 -0.155003D+00 -0.353808D+00 -0.141131D-02
     30   0.291143D+00  0.291213D+00  0.135469D-02  0.144193D-02  0.180173D+00
     31   0.291170D+00 -0.291185D+00  0.135511D-02  0.144186D-02  0.180185D+00
     32   0.102387D-02  0.000000D+00 -0.391045D+00  0.157701D+00 -0.431574D-03
     33  -0.170590D-02  0.000000D+00  0.104423D+00  0.140783D+00 -0.222451D-02
     34  -0.256532D+00 -0.256571D+00 -0.117214D-02  0.181218D-02 -0.317982D+00
     35  -0.256557D+00  0.256547D+00 -0.117268D-02  0.181242D-02 -0.318003D+00
     36  -0.527194D-03  0.000000D+00  0.540918D+00 -0.173285D+00 -0.292159D-02
                16            17            18            19            20 
      1   0.000000D+00  0.611608D-01 -0.168436D+00  0.197534D-01  0.106136D+02
      2   0.000000D+00 -0.576849D+00 -0.736090D+00  0.246906D-01 -0.496038D+00
      3   0.417112D+00 -0.394656D-02  0.332690D-02  0.994792D-03 -0.181905D-01
      4  -0.417083D+00 -0.394768D-02  0.332807D-02  0.995265D-03 -0.181923D-01
      5   0.000000D+00  0.228027D+00 -0.565910D+00  0.415431D-01  0.123702D+00
      6   0.000000D+00  0.660928D+00  0.396111D+00 -0.167703D-01 -0.458789D-01
      7  -0.306110D+00 -0.391346D-03 -0.155727D-02  0.498878D-02 -0.942268D-02
      8   0.306089D+00 -0.391398D-03 -0.155781D-02  0.498933D-02 -0.942473D-02
      9   0.000000D+00 -0.112562D+00  0.252878D+00 -0.381618D-02  0.114062D-01
     10   0.000000D+00 -0.147067D-01 -0.336369D-01 -0.566302D+01  0.167939D+00
     11   0.000000D+00  0.309112D+00 -0.548947D+00  0.106752D+01  0.174731D+00
     12   0.182709D+00  0.273042D-02 -0.104930D-01 -0.610975D-01 -0.582247D+00
     13  -0.182697D+00  0.273050D-02 -0.104935D-01 -0.611003D-01 -0.582313D+00
     14   0.000000D+00  0.541876D-01  0.167818D-01 -0.235522D+00 -0.458515D+01
     15   0.000000D+00 -0.339076D+00  0.103917D+01 -0.187846D-01 -0.206500D+00
     16  -0.310502D+00  0.105836D-02  0.516994D-02  0.294003D-01 -0.134317D+00
     17   0.310481D+00  0.105849D-02  0.517034D-02  0.294017D-01 -0.134363D+00
     18   0.000000D+00 -0.547781D-01 -0.156887D+00  0.855542D-01 -0.905783D+00
     19   0.000000D+00  0.555631D-01 -0.211712D+00  0.394938D-01 -0.105071D+02
     20   0.000000D+00 -0.578355D+00 -0.713348D+00  0.259125D-01  0.705952D+00
     21   0.424652D+00  0.282181D-02 -0.133223D-02 -0.190927D-01  0.943542D-01
     22  -0.424623D+00  0.282245D-02 -0.133224D-02 -0.190940D-01  0.943741D-01
     23   0.000000D+00  0.212446D+00 -0.610815D+00 -0.466171D-01 -0.211869D+00
     24   0.000000D+00  0.661958D+00  0.393896D+00 -0.167147D-01 -0.462191D-01
     25  -0.305452D+00  0.101415D-02  0.658329D-03  0.776635D-04 -0.307206D-01
     26   0.305431D+00  0.101446D-02  0.658370D-03  0.773822D-04 -0.307281D-01
     27   0.000000D+00 -0.116204D+00  0.239669D+00 -0.557547D-02  0.410806D-01
     28   0.000000D+00 -0.383601D-02 -0.568115D-02  0.566464D+01  0.167310D+00
     29   0.000000D+00  0.306377D+00 -0.559714D+00 -0.104867D+01  0.138114D+00
     30   0.180272D+00 -0.316115D-02  0.100081D-01 -0.646834D-01  0.578205D+00
     31  -0.180260D+00 -0.316135D-02  0.100086D-01 -0.646864D-01  0.578269D+00
     32   0.000000D+00  0.389108D-01  0.872040D-01 -0.226621D+00  0.457146D+01
     33   0.000000D+00 -0.340395D+00  0.103508D+01 -0.155447D-01 -0.203298D+00
     34  -0.318067D+00 -0.435504D-03 -0.437775D-02  0.337554D-01  0.145147D+00
     35   0.318045D+00 -0.435448D-03 -0.437780D-02  0.337570D-01  0.145197D+00
     36   0.000000D+00 -0.549582D-01 -0.182882D+00  0.151074D+00  0.116901D+01
                21            22            23            24            25 
      1  -0.528331D+01  0.143202D-04  0.166844D+01 -0.226951D+00  0.221943D+01
      2   0.161159D+00  0.116992D-04 -0.645902D-01 -0.144396D+00  0.238751D+01
      3  -0.613710D-01 -0.227137D+00 -0.238546D+00  0.431550D+00 -0.544348D+00
      4  -0.613672D-01  0.227147D+00 -0.238551D+00  0.431592D+00 -0.545377D+00
      5  -0.155117D+00 -0.211942D-04  0.325035D+00  0.265911D+01  0.660047D+01
      6  -0.258448D-02  0.000000D+00  0.116868D-02 -0.396053D-01 -0.794522D-01
      7  -0.948263D-04 -0.153993D-01 -0.194352D-01  0.156892D+00 -0.363438D+00
      8  -0.930493D-04  0.154001D-01 -0.194364D-01  0.156916D+00 -0.363620D+00
      9  -0.572379D-01  0.000000D+00  0.242740D-01  0.270900D+00 -0.130358D+00
     10   0.436765D+00  0.000000D+00 -0.405245D-01  0.544149D+01  0.505068D+00
     11   0.237544D+00  0.000000D+00 -0.240697D-01  0.290954D+02  0.272214D+01
     12  -0.376827D+01 -0.110414D+02 -0.101196D+02  0.239762D+00 -0.200813D+01
     13  -0.376840D+01  0.110414D+02 -0.101195D+02  0.239774D+00 -0.200810D+01
     14  -0.109003D+02 -0.137332D-03  0.629413D+01  0.814003D+00 -0.276479D+01
     15  -0.147535D+00  0.000000D+00 -0.124812D-01 -0.452643D-02 -0.541015D+00
     16  -0.427349D+00 -0.169287D+01 -0.157044D+01 -0.655021D+00  0.141867D+02
     17  -0.427340D+00  0.169287D+01 -0.157044D+01 -0.655046D+00  0.141868D+02
     18  -0.829039D+00 -0.176279D-04  0.564161D+00 -0.256851D+01  0.301676D+02
     19   0.517562D+01 -0.166875D-04 -0.156666D+01  0.292841D+00 -0.156307D+01
     20  -0.121256D+00 -0.115638D-04  0.605197D-01  0.258657D+00 -0.183437D+01
     21   0.576432D-01  0.280610D+00  0.289717D+00 -0.449062D+00  0.318822D+00
     22   0.576318D-01 -0.280619D+00  0.289724D+00 -0.449107D+00  0.319840D+00
     23   0.291815D+00  0.208224D-04 -0.347150D+00 -0.265592D+01 -0.637551D+01
     24  -0.238841D-02  0.000000D+00  0.107145D-02 -0.395178D-01 -0.790954D-01
     25   0.197010D-02 -0.122158D-01 -0.717221D-02 -0.155433D+00  0.477942D+00
     26   0.197221D-02  0.122146D-01 -0.717203D-02 -0.155456D+00  0.478129D+00
     27   0.143940D-01  0.000000D+00 -0.182090D-01 -0.290155D+00  0.114700D+00
     28   0.399774D+00  0.000000D+00 -0.428433D-02 -0.545431D+01 -0.325048D+00
     29   0.219170D+00  0.000000D+00  0.280872D-01 -0.290317D+02 -0.312059D+01
     30   0.377480D+01  0.110472D+02  0.101223D+02  0.525245D-01  0.199976D+01
     31   0.377493D+01 -0.110472D+02  0.101223D+02  0.525251D-01  0.199973D+01
     32   0.109145D+02  0.137522D-03 -0.630758D+01  0.265478D+00  0.279999D+01
     33  -0.149366D+00  0.000000D+00 -0.117140D-01 -0.136930D-02 -0.535709D+00
     34   0.408955D+00  0.167461D+01  0.156027D+01  0.756288D+00 -0.140552D+02
     35   0.408944D+00 -0.167461D+01  0.156027D+01  0.756320D+00 -0.140553D+02
     36   0.686982D+00  0.174419D-04 -0.495252D+00  0.288900D+01 -0.298900D+02
                26            27            28            29            30 
      1  -0.222983D-01 -0.182673D-03 -0.190334D+01  0.676218D-04 -0.397957D+00
      2  -0.157932D+01 -0.253680D-03 -0.591483D+00  0.216041D-04 -0.350023D+00
      3  -0.112100D+02  0.768981D+01 -0.107085D+02  0.364398D+02  0.331733D+02
      4  -0.112129D+02 -0.768772D+01 -0.107142D+02 -0.364249D+02  0.331871D+02
      5   0.237091D+02 -0.215879D-02  0.311218D+02  0.970795D-03  0.265674D+02
      6  -0.179731D+00  0.138907D-04 -0.243391D+00  0.294579D-05 -0.788397D-01
      7  -0.206145D+01  0.109631D+01 -0.380930D+01  0.133580D+02  0.125720D+02
      8  -0.206194D+01 -0.109593D+01 -0.381116D+01 -0.133525D+02  0.125773D+02
      9   0.392211D+01 -0.363605D-03  0.114622D+02  0.130644D-03  0.814777D+01
     10  -0.193831D+00  0.795119D-05 -0.421258D+00 -0.257870D-04 -0.348398D+00
     11  -0.155027D+01  0.801332D-04 -0.382251D+01 -0.276010D-03 -0.368651D+01
     12   0.325352D+01 -0.458554D+01 -0.231992D+01  0.778144D+00  0.671291D-02
     13   0.325454D+01  0.458470D+01 -0.232026D+01 -0.777748D+00  0.703763D-02
     14  -0.193882D+01  0.251982D-03  0.219676D+01 -0.154903D-03 -0.370530D+00
     15  -0.120687D+00  0.269302D-04  0.128514D-01 -0.200015D-04 -0.341117D+00
     16  -0.185528D+02  0.288656D+02  0.192360D+02 -0.104402D+02 -0.385871D+01
     17  -0.185587D+02 -0.288606D+02  0.192395D+02  0.104352D+02 -0.386275D+01
     18   0.124979D+02 -0.204092D-02 -0.249284D+02  0.103068D-02 -0.683433D+00
     19   0.657616D+00  0.113734D-03  0.182655D+01 -0.519527D-04  0.468547D+00
     20   0.226648D+01  0.192173D-03  0.157759D+01 -0.290516D-04  0.797959D+00
     21   0.112443D+02 -0.793208D+01  0.104540D+02 -0.361144D+02 -0.329788D+02
     22   0.112473D+02  0.792997D+01  0.104597D+02  0.360996D+02 -0.329924D+02
     23  -0.236233D+02  0.215073D-02 -0.308095D+02 -0.957464D-03 -0.261248D+02
     24  -0.179944D+00  0.138696D-04 -0.242801D+00  0.293611D-05 -0.785580D-01
     25   0.202037D+01 -0.968389D+00  0.391245D+01 -0.134810D+02 -0.126424D+02
     26   0.202084D+01  0.968023D+00  0.391434D+01  0.134755D+02 -0.126477D+02
     27  -0.389818D+01  0.362849D-03 -0.115440D+02 -0.133823D-03 -0.825948D+01
     28   0.199779D+00 -0.116398D-04  0.390356D+00  0.310339D-04  0.393565D+00
     29   0.153751D+01 -0.738337D-04  0.400066D+01  0.292247D-03  0.388503D+01
     30  -0.330232D+01  0.457388D+01  0.221502D+01 -0.656705D+00  0.445460D-01
     31  -0.330335D+01 -0.457304D+01  0.221534D+01  0.656353D+00  0.442600D-01
     32   0.196364D+01 -0.253599D-03 -0.207474D+01  0.149279D-03  0.415490D+00
     33  -0.122995D+00  0.269498D-04  0.969199D-03 -0.209731D-04 -0.352716D+00
     34   0.187207D+02 -0.288517D+02 -0.189500D+02  0.992777D+01  0.349547D+01
     35   0.187267D+02  0.288467D+02 -0.189534D+02 -0.992303D+01  0.349934D+01
     36  -0.127221D+02  0.204836D-02  0.241603D+02 -0.103207D-02  0.311910D+00
                31            32            33            34 
      1  -0.134867D+01 -0.162177D-04 -0.733816D-02 -0.590435D+01
      2  -0.108094D+02 -0.703127D-03 -0.479194D+01 -0.130100D+03
      3  -0.654419D+01 -0.290640D+02 -0.271781D+02  0.340563D+01
      4  -0.654584D+01  0.290498D+02 -0.271924D+02  0.340648D+01
      5   0.199324D+02 -0.206477D-02 -0.172969D+02 -0.644548D+01
      6  -0.211823D+00  0.193495D-05  0.242911D-01 -0.500039D-01
      7   0.227133D+02  0.820782D+02  0.758152D+02 -0.705828D+01
      8   0.227192D+02 -0.820380D+02  0.758553D+02 -0.705998D+01
      9  -0.796458D+02  0.547928D-02  0.440195D+02  0.109027D+02
     10  -0.146997D+00  0.151523D-04  0.101525D+00  0.905593D-02
     11  -0.163440D+01  0.218852D-03  0.144422D+01  0.417468D+00
     12  -0.234772D+00 -0.121451D+00  0.445441D-01 -0.464424D+00
     13  -0.234815D+00  0.121413D+00  0.444670D-01 -0.464544D+00
     14   0.808501D+00  0.138711D-04 -0.341381D-01  0.823532D+00
     15   0.852201D-01  0.105701D-04  0.125855D+00 -0.497957D+00
     16   0.396819D+01  0.504012D+01  0.295192D+01  0.406016D+01
     17   0.396903D+01 -0.503790D+01  0.295449D+01  0.406181D+01
     18  -0.696069D+01  0.355119D-03  0.286605D+01  0.772008D+01
     19   0.143291D+01  0.206498D-04  0.449094D-01  0.632370D+01
     20   0.103646D+02  0.690482D-03  0.463150D+01  0.130663D+03
     21   0.642954D+01  0.288820D+02  0.270225D+02 -0.392861D+01
     22   0.643116D+01 -0.288679D+02  0.270367D+02 -0.392959D+01
     23  -0.197728D+02  0.205348D-02  0.171492D+02  0.849859D+01
     24  -0.211888D+00  0.192472D-05  0.241813D-01 -0.504074D-01
     25  -0.226958D+02 -0.820106D+02 -0.757695D+02  0.693824D+01
     26  -0.227018D+02  0.819704D+02 -0.758096D+02  0.693990D+01
     27   0.796812D+02 -0.547054D-02 -0.439411D+02 -0.106204D+02
     28   0.106731D+00 -0.181380D-04 -0.116688D+00 -0.459556D-01
     29   0.158740D+01 -0.238397D-03 -0.155798D+01 -0.482109D+00
     30   0.201384D+00  0.624839D-01 -0.784691D-01  0.464551D+00
     31   0.201421D+00 -0.624688D-01 -0.784184D-01  0.464671D+00
     32  -0.735609D+00 -0.170044D-04 -0.495401D-02 -0.850986D+00
     33   0.760667D-01  0.126608D-04  0.138000D+00 -0.482754D+00
     34  -0.385646D+01 -0.474316D+01 -0.271670D+01 -0.402353D+01
     35  -0.385728D+01  0.474107D+01 -0.271913D+01 -0.402517D+01
     36   0.665901D+01 -0.331842D-03 -0.267757D+01 -0.681165D+01
 NBasis=    36 RedAO= T EigKep=  2.87D-05  NBF=    36
 NBsUse=    34 1.00D-06 EigRej=  2.81D-12 NBFU=    34
 Precomputing XC quadrature grid using
 IXCGrd= 4 IRadAn=           5 IRanWt=          -1 IRanGd=           0 AccXCQ= 0.00D+00.
 SetAtRh:  ITypeU=  23 NETotI=       0 ICharg=  4 NETot=       0.
 StAtR1:  I=    1 I1=    1 IA=  3 C=   3.0 OKShel=TT
                                                  SS
                                                  21
 StAtR1:  I=    2 I1=    2 IA=  9 C=   9.0 OKShel=TTT
                                                  SSP
                                                  225
 StAtR1:  I=    3 I1=    3 IA=  3 C=   3.0 OKShel=TT
                                                  SS
                                                  21
 StAtR1:  I=    4 I1=    4 IA=  9 C=   9.0 OKShel=TTT
                                                  SSP
                                                  225
          I=    1 IA=  3 I1=    1 NAtG= 0 NE=   3.000 C=   0.000 Err=-3.00D+00
          I=    2 IA=  9 I1=    2 NAtG= 0 NE=   9.000 C=   0.000 Err=-9.00D+00
          I=    3 IA=  3 I1=    3 NAtG= 0 NE=   3.000 C=   0.000 Err=-3.00D+00
          I=    4 IA=  9 I1=    4 NAtG= 0 NE=   9.000 C=   0.000 Err=-9.00D+00
 Generated NRdTot=       0 NPtTot=           0 NUsed=           0 NTot=          32
 NSgBfM=    36    36    36    36    36 MxSgAt=     4 MxSgA2=     4.
 IGWInf( 1) =          32 (NGWInf)
 IGWInf( 2) =           4 (NAtomA)
 IGWInf( 3) =           5 (IRadAn)
 IGWInf( 4) =          -1 (IRanWt)
 IGWInf( 5) =           0 (IRanGd)
 IGWInf( 6) =           2 (IRType)
 IGWInf( 7) =           0 (NRdTot)
 IGWInf( 8) =           0 (NGWTot)
 IGWInf( 9) =       88832 (LGWBtD)
 IGWInf(10) =           0 (NAtBtD)
 IGWInf(11) =           0 (NIRBtD)
 IGWInf(12) =           0 (NRRBtD)
 IGWInf(13) =           1 (NClRep)
 IGWInf(14) =           0 (ICntr3)
 IGWInf(15) =           0 (IPFlag)
 IGWInf(16) =           0 (IGet)  
 IGWInf(17) =           0         
 IGWInf(18) =          36         
[...]
  20        2S        153.79366 -16.70507 -16.71183 -51.47986 -37.02570
  21        2PX        14.46639  -0.63371   6.74262  19.32072  -3.13794
  22        2PY        14.46783   6.74337  -0.63214  19.32383  -3.13851
  23        2PZ         3.83578   8.26279   8.26369  11.76803   9.84372
  24        3S          0.33495  -0.07542  -0.07545   0.05555  -0.05797
  25        3PX        24.23482  -0.92788   0.56130   3.45937  -2.69488
  26        3PY        24.23908   0.56216  -0.92820   3.46028  -2.69523
  27        3PZ        18.73692   4.05635   4.05677  10.21299  -1.36310
  28 4   F  1S         19.72402  -0.74302  -0.74306  -3.08314   0.07203
  29        2S       -225.21822  -2.41610  -2.41615  -1.97290  -1.18752
  30        2PX         1.09993  -4.61549  -3.27139 -12.31447   0.02171
  31        2PY         1.10003  -3.27139  -4.61579 -12.31505   0.02167
  32        2PZ        10.75709 -12.38184 -12.38242 -48.50047   0.90591
  33        3S          1.05160  -0.04927  -0.04924  -0.75537   0.68366
  34        3PX       -12.48681 -12.59967   0.89559   3.34262  -1.20835
  35        3PY       -12.48840   0.89566 -12.59959   3.34270  -1.20823
  36        3PZ        36.80258  -3.25041  -3.24992 -31.34949  17.29125
                          16        17        18        19        20
  16        3PX       171.86538
  17        3PY        -3.88860 171.86236
  18        3PZ       -55.10694 -55.10386 493.10444
  19 3   Li 1S         -1.96024  -1.95958  24.61392   2.97922
  20        2S       -130.15968-130.16436 858.00735 -33.322005307.12097
  21        2PX        -5.93501  11.20479  76.69480   1.06666 226.65404
  22        2PY        11.20163  -5.92921  76.70940   1.06707 226.68796
  23        2PZ        29.28958  29.28233-240.44467  -0.93192**********
  24        3S         -0.58825  -0.58842   1.36118  -0.15404   9.40364
  25        3PX       -39.72943  11.84525  65.63699  -2.68669 309.33581
  26        3PY        11.84964 -39.72729  65.64412  -2.68731 309.37955
  27        3PZ        12.48396  12.48851  23.19454  -2.42027 198.54120
  28 4   F  1S          1.00031   1.00038  -3.23051  -0.49084   8.23086
  29        2S        -11.73512 -11.73665  47.54809   6.98573-152.96487
  30        2PX       -19.37344   1.36155  -0.97049  -0.58951  20.64169
  31        2PY         1.36147 -19.37324  -0.96976  -0.58963  20.64925
  32        2PZ         5.63947   5.63965 -37.80408  -4.16466  51.42465
  33        3S          1.09819   1.09806 -17.82254  -0.75497 -36.64731
  34        3PX      -162.74539   2.73250  55.49919   2.22400 124.28421
  35        3PY         2.73252-162.74259  55.49630   2.22338 124.28813
  36        3PZ        48.31045  48.30712-467.73304 -23.01565-824.87491
                          21        22        23        24        25
  21        2PX        74.43682
  22        2PY        49.33478  74.44784
  23        2PZ       -45.13764 -45.14218 281.86345
  24        3S          3.69034   3.69063  -3.50177   0.51350
  25        3PX        85.94946  91.14430 -75.87324  10.09198 221.59597
  26        3PY        91.14808  85.97105 -75.88109  10.09336 202.03748
  27        3PZ       -15.41603 -15.41644  -7.19094  -5.18058 -91.22510
  28 4   F  1S         -0.26950  -0.26960  -0.26353   0.01665   1.52467
  29        2S        -11.82001 -11.82102  -2.60210  -0.33691 -23.95047
  30        2PX        -4.60404  -5.42627  -6.13864   0.13210   5.51188
  31        2PY        -5.42570  -4.60531  -6.13929   0.13213  -1.09550
  32        2PZ       -18.36987 -18.37309 -12.81066  -0.07486  -3.67406
  33        3S         -3.13634  -3.13690   9.65240  -0.05811  -2.70529
  34        3PX         5.43036 -11.91596 -30.72218   0.49169  35.21352
  35        3PY       -11.91889   5.42466 -30.71541   0.49185 -12.81768
  36        3PZ       -76.79753 -76.81192 225.46428  -1.33140 -65.56413
                          26        27        28        29        30
  26        3PY       221.65297
  27        3PZ       -91.23707  87.30219
  28 4   F  1S          1.52493   0.54509   2.51249
  29        2S        -23.95466 -16.77489 -20.12509 225.98369
  30        2PX        -1.09646  -5.04200   1.24795  -3.14403   5.74014
  31        2PY         5.51197  -5.04244   1.24801  -3.14423   3.23257
  32        2PZ        -3.67478  -8.68420   4.97717 -18.59264  12.35018
  33        3S         -2.70565  -1.36845   0.06405  -1.07861   0.02429
  34        3PX       -12.82209 -11.69660  -1.10651  13.26063  18.26084
  35        3PY        35.21120 -11.70095  -1.10659  13.26220  -1.19977
  36        3PZ       -65.57159 -24.05262   2.68936 -39.95316   1.48903
                          31        32        33        34        35
  31        2PY         5.74044
  32        2PZ        12.35076  49.87840
  33        3S          0.02426   0.87930   0.67241
  34        3PX        -1.19969  -5.53196  -1.14596 154.29344
  35        3PY        18.26066  -5.53213  -1.14584  -1.57181 154.29087
  36        3PZ         1.48836  35.92316  16.98469 -48.66027 -48.65713
                          36
  36        3PZ       444.48101
    Full Mulliken population analysis:
                           1         2         3         4         5
   1 1   Li 1S          3.08338
   2        2S        -19.915905354.06735
   3        2PX         0.00000   0.00000  79.64990
   4        2PY         0.00000   0.00000   0.00000  79.66082
   5        2PZ         0.00000   0.00000   0.00000   0.00000 354.07785
   6        3S          0.00685  -7.40258   0.00000   0.00000   0.00000
   7        3PX         0.00000   0.00000  50.53031   0.00000   0.00000
   8        3PY         0.00000   0.00000   0.00000  50.54275   0.00000
   9        3PZ         0.00000   0.00000   0.00000   0.00000  -9.48404
  10 2   F  1S         -0.00130   0.29030   0.00000   0.00000   0.03887
  11        2S          0.30178 -30.67195   0.00000   0.00000  -0.63222
  12        2PX         0.00000   0.00000   0.16087   0.00000   0.00000
  13        2PY         0.00000   0.00000   0.00000   0.16074   0.00000
  14        2PZ         0.26884  -0.43988   0.00000   0.00000   0.29193
  15        3S         -0.12121  16.88684   0.00000   0.00000  -5.71579
  16        3PX         0.00000   0.00000   7.51440   0.00000   0.00000
  17        3PY         0.00000   0.00000   0.00000   7.51204   0.00000
  18        3PZ        -5.21365  95.09430   0.00000   0.00000  21.38942
  19 3   Li 1S         -0.89705   6.03438  -0.00474  -0.00474   0.00384
  20        2S         19.92026**********  -1.00467  -1.00510 -15.88656
  21        2PX        -0.01445   0.90702 -76.47613   0.00150   0.00490
  22        2PY        -0.01446   0.90740   0.00150 -76.48706   0.00490
  23        2PZ        -0.34108  13.94667   0.00515   0.00515-315.35557
  24        3S          0.00718  -7.51310  -0.00577  -0.00577  -0.01976
  25        3PX        -0.00297   1.00308 -52.00730   0.00059   0.00181
  26        3PY        -0.00297   1.00349   0.00059 -52.02003   0.00181
  27        3PZ         0.00900  -2.16580   0.00031   0.00031   6.74389
  28 4   F  1S          0.00157  -0.32500   0.00007   0.00007   0.02752
  29        2S         -0.28336  30.35652   0.01730   0.01730   0.17192
  30        2PX        -0.00027   0.00106   0.26661  -0.00001  -0.00367
  31        2PY        -0.00027   0.00106  -0.00001   0.26671  -0.00367
  32        2PZ        -0.25087   0.53225  -0.00939  -0.00939  -0.34187
  33        3S         -0.11512  16.61732   0.00873   0.00873  -5.62559
  34        3PX        -0.00350   0.06915  -6.93954  -0.00010  -0.05265
  35        3PY        -0.00350   0.06915  -0.00010  -6.93726  -0.05264
  36        3PZ         4.95314 -94.84259  -0.13315  -0.13318 -17.26028
                           6         7         8         9        10
   6        3S          0.50872
   7        3PX         0.00000 211.16323
   8        3PY         0.00000   0.00000 211.21705
   9        3PZ         0.00000   0.00000   0.00000  81.93063
  10 2   F  1S         -0.00048   0.00000   0.00000   0.02532   2.49808
  11        2S          0.03608   0.00000   0.00000  -1.35215  -4.27064
  12        2PX         0.00000   0.01461   0.00000   0.00000   0.00000
  13        2PY         0.00000   0.00000   0.01462   0.00000   0.00000
  14        2PZ        -0.00036   0.00000   0.00000  -0.16838   0.00000
  15        3S         -0.01606   0.00000   0.00000   0.25863  -0.02309
  16        3PX         0.00000   4.90767   0.00000   0.00000   0.00000
  17        3PY         0.00000   0.00000   4.90740   0.00000   0.00000
  18        3PZ        -0.05539   0.00000   0.00000  -2.77031   0.00000
  19 3   Li 1S         -0.02154   0.00194   0.00194  -0.00629   0.00172
  20        2S          7.25066  -0.96213  -0.96252   2.31400  -0.27945
  21        2PX        -0.00574 -49.19082   0.00059   0.00026   0.00064
  22        2PY        -0.00574   0.00059 -49.20324   0.00026   0.00064
  23        2PZ        -0.01834   0.00163   0.00163   6.72205  -0.03569
  24        3S          0.51108  -0.02620  -0.02621  -0.04322  -0.00049
  25        3PX        -0.02672-216.29663   0.00140   0.00200   0.00015
  26        3PY        -0.02673   0.00140-216.35202   0.00200   0.00015
  27        3PZ        -0.04640   0.00213   0.00213 -84.44263  -0.02530
  28 4   F  1S          0.00034  -0.00010  -0.00010  -0.00805  -1.03581
  29        2S         -0.03616   0.00820   0.00820   1.23497   4.22245
  30        2PX        -0.00000  -0.10846  -0.00000  -0.00011  -0.01454
  31        2PY        -0.00000  -0.00000  -0.10846  -0.00011  -0.01454
  32        2PZ         0.00050  -0.00007  -0.00007   0.14100  -0.17368
  33        3S         -0.01604   0.00226   0.00226   0.26336  -0.02177
  34        3PX        -0.00010  -4.32238  -0.00001  -0.00162  -0.00145
  35        3PY        -0.00010  -0.00001  -4.32208  -0.00162  -0.00145
  36        3PZ         0.05497  -0.00816  -0.00817   2.82592   0.03103
                          11        12        13        14        15
  11        2S        226.01126
  12        2PX         0.00000   5.95658
  13        2PY         0.00000   0.00000   5.95688
  14        2PZ         0.00000   0.00000   0.00000  49.50716
  15        3S          0.84856   0.00000   0.00000   0.00000   0.69526
  16        3PX         0.00000   6.34150   0.00000   0.00000   0.00000
  17        3PY         0.00000   0.00000   6.34145   0.00000   0.00000
  18        3PZ         0.00000   0.00000   0.00000  15.96045   0.00000
  19 3   Li 1S         -0.32303   0.00030   0.00030  -0.28722  -0.15431
  20        2S         29.96118  -0.00158  -0.00158   0.60195 -16.67478
  21        2PX        -0.03283  -0.05205  -0.00005   0.01613   0.01361
  22        2PY        -0.03285  -0.00005  -0.05192   0.01613   0.01361
  23        2PZ         1.07442   0.00690   0.00690  -0.24553   5.26717
  24        3S          0.03652  -0.00000  -0.00000  -0.00037  -0.01631
  25        3PX        -0.01386  -0.01899  -0.00000   0.00012   0.00381
  26        3PY        -0.01386  -0.00000  -0.01900   0.00012   0.00381
  27        3PZ         1.32200   0.00014   0.00014   0.16456  -0.23775
  28 4   F  1S          4.26895  -0.01361  -0.01361  -0.20589   0.01322
  29        2S       -224.83433  -0.01985  -0.01985  -0.05911  -0.86903
  30        2PX        -0.00904  -4.60524   0.00084   0.01152  -0.00007
  31        2PY        -0.00904   0.00084  -4.60554   0.01152  -0.00007
  32        2PZ        -0.32231   0.01158   0.01158 -48.23974  -0.01065
  33        3S          0.76957  -0.00016  -0.00016  -0.00888   0.68343
  34        3PX         0.09548  -6.14949  -0.00003  -0.00043   0.00798
  35        3PY         0.09550  -0.00003  -6.14945  -0.00043   0.00798
  36        3PZ        -1.02618   0.00041   0.00041 -15.28718  -0.41652
                          16        17        18        19        20
  16        3PX       171.86538
  17        3PY         0.00000 171.86236
  18        3PZ         0.00000   0.00000 493.10444
  19 3   Li 1S         -0.00622  -0.00622  -9.64544   2.97922
  20        2S         -0.12332  -0.12336-100.32608  -5.905145307.12097
  21        2PX        -2.35326  -0.00024   0.20613   0.00000   0.00000
  22        2PY        -0.00024  -2.35096   0.20623   0.00000   0.00000
  23        2PZ         0.07872   0.07872 -15.58841   0.00000   0.00000
  24        3S         -0.00020  -0.00020  -0.05777  -0.02167   7.36099
  25        3PX        -5.13509  -0.00002   0.01400   0.00000   0.00000
  26        3PY        -0.00002  -5.13481   0.01400   0.00000   0.00000
  27        3PZ         0.00266   0.00266   2.38759   0.00000   0.00000
  28 4   F  1S          0.00235   0.00235  -0.02769  -0.00188   0.32047
  29        2S         -0.08973  -0.08975   1.32581   0.30596 -29.67987
  30        2PX        -9.45554  -0.00005   0.00012  -0.00013   0.00088
  31        2PY        -0.00005  -9.45544   0.00012  -0.00013   0.00088
  32        2PZ        -0.00072  -0.00072 -18.43467   0.28298  -0.69355
  33        3S          0.00725   0.00725  -0.42931  -0.14283 -16.39966
  34        3PX      -162.68394  -0.00012  -0.00883   0.00266   0.04735
  35        3PY        -0.00012-162.68114  -0.00883   0.00266   0.04738
  36        3PZ        -0.00769  -0.00769-467.30537   8.74628  99.76961
                          21        22        23        24        25
  21        2PX        74.43682
  22        2PY         0.00000  74.44784
  23        2PZ         0.00000   0.00000 281.86345
  24        3S          0.00000   0.00000   0.00000   0.51350
  25        3PX        50.58928   0.00000   0.00000   0.00000 221.59597
  26        3PY         0.00000  50.60199   0.00000   0.00000   0.00000
  27        3PZ         0.00000   0.00000  -4.23254   0.00000   0.00000
  28 4   F  1S          0.00005   0.00005  -0.01521   0.00034  -0.00007
  29        2S          0.01039   0.01039  -0.72586  -0.03660   0.00540
  30        2PX        -0.36982   0.00001  -0.00199   0.00000   0.11240
  31        2PY         0.00001  -0.36992  -0.00199   0.00000   0.00000
  32        2PZ        -0.00595  -0.00595   0.28815   0.00051  -0.00005
  33        3S          0.00530   0.00530   5.17881  -0.01629   0.00151
  34        3PX         2.12123   0.00004  -0.03261   0.00007   4.53484
  35        3PY         0.00004   2.11900  -0.03262   0.00007   0.00000
  36        3PZ        -0.08151  -0.08158  12.09787   0.05731  -0.00561
                          26        27        28        29        30
  26        3PY       221.65297
  27        3PZ         0.00000  87.30219
  28 4   F  1S         -0.00007   0.00749   2.51249
  29        2S          0.00540  -1.20011  -4.32113 225.98369
  30        2PX         0.00000  -0.00007   0.00000   0.00000   5.74014
  31        2PY         0.11240  -0.00007   0.00000   0.00000   0.00000
  32        2PZ        -0.00005  -0.13804   0.00000   0.00000   0.00000
  33        3S          0.00151  -0.24205   0.01176  -0.78975   0.00000
  34        3PX         0.00000  -0.00100   0.00000   0.00000   8.91804
  35        3PY         4.53454  -0.00100   0.00000   0.00000   0.00000
  36        3PZ        -0.00561  -2.44416   0.00000   0.00000   0.00000
                          31        32        33        34        35
  31        2PY         5.74044
  32        2PZ         0.00000  49.87840
  33        3S          0.00000   0.00000   0.67241
  34        3PX         0.00000   0.00000   0.00000 154.29344
  35        3PY         8.91796   0.00000   0.00000   0.00000 154.29087
  36        3PZ         0.00000  17.54378   0.00000   0.00000   0.00000
                          36
  36        3PZ       444.48101
     Gross orbital populations:
                           1
   1 1   Li 1S          1.37009
   2        2S         45.29163
   3        2PX         1.57494
   4        2PY         1.57407
   5        2PZ        12.32435
   6        3S          0.69070
   7        3PX        -4.28101
   8        3PY        -4.28291
   9        3PZ        -2.55813
  10 2   F  1S          1.20968
  11        2S          1.27703
  12        2PX         1.63268
  13        2PY         1.63268
  14        2PZ         1.90704
  15        3S          0.44825
  16        3PX        10.86378
  17        3PY        10.86350
  18        3PZ         9.83087
  19 3   Li 1S          0.93562
  20        2S        -44.53168
  21        2PX        -0.26898
  22        2PY        -0.26808
  23        2PZ       -10.00407
  24        3S          0.69764
  25        3PX         4.35905
  26        3PY         4.36100
  27        3PZ         2.77029
  28 4   F  1S          1.20088
  29        2S          0.62940
  30        2PX         0.48260
  31        2PY         0.48261
  32        2PZ         0.05298
  33        3S          0.43913
  34        3PX       -10.10751
  35        3PY       -10.10724
  36        3PZ        -8.49288
          Condensed to atoms (all electrons):
               1          2          3          4
     1  Li6503.913720 112.915519*********** -84.340853
     2  F  112.9155191177.853864-117.866878***********
     3  Li***********-117.8668786468.698752  88.003603
     4  F  -84.340853***********  88.0036031104.154201
 Mulliken charges:
               1
     1  Li -48.703714
     2  F  -30.665518
     3  Li  44.949195
     4  F   34.420037
 Sum of Mulliken charges =  -0.00000
 Mulliken charges with hydrogens summed into heavy atoms:
               1
     1  Li -48.703714
     2  F  -30.665518
     3  Li  44.949195
     4  F   34.420037
 N-N= 2.388729659512D+03 E-N=-8.953450861069D+02  KE= 2.131108797995D+02
 Orbital energies and kinetic energies (alpha):
                                 1                 2
   1         O               -84.663573         44.315907
   2         O               -10.902190         24.604527
   3         O                -7.570075          5.641528
   4         O                -6.957525          6.908842
   5         O                -6.414004          7.994930
   6         O                -6.404631          7.980249
   7         O                -0.892201          3.835588
   8         O                -0.454228          1.288527
   9         O                -0.350418          0.969262
  10         O                -0.299508          1.643790
  11         O                -0.295519          1.105749
  12         O                -0.027280          0.266542
  13         V                -0.008449          0.208421
  14         V                -0.004261          0.229283
  15         V                -0.000270          0.373443
  16         V                 0.011252          0.251944
  17         V                 0.027641          0.213657
  18         V                 0.037726          0.401457
  19         V                 0.097289          0.804383
  20         V                 0.112921          0.733894
  21         V                 0.167501          1.098164
  22         V                 0.288383          1.841696
  23         V                 0.353242          2.006571
  24         V                 0.357100          2.319639
  25         V                 0.412881          1.763513
  26         V                 0.455835          1.548589
  27         V                 0.538856          2.097496
  28         V                 1.357816          3.971306
  29         V                 3.182554         14.520907
  30         V                 3.237061         14.499987
  31         V                 3.407449         16.432561
  32         V                 3.795295         16.921689
  33         V                 9.577887         21.957033
  34         V               102.625075        257.187211
 Total kinetic energy from orbitals= 2.131108797995D+02

 This type of calculation cannot be archived.


 BOOKS ARE LIGHTHOUSES ERECTED IN THE GREAT SEA OF TIME.
     -- E.P.WHIPPLE
 Job cpu time:       0 days  0 hours  0 minutes  1.6 seconds.
 Elapsed time:       0 days  0 hours  0 minutes  2.1 seconds.
 File lengths (MBytes):  RWF=    272 Int=      0 D2E=      0 Chk=     32 Scr=     32
 Normal termination of Gaussian 16 at Thu Dec 29 19:36:07 2022.
