 Entering Gaussian System, Link 0=g16
 Initial command:
 /software/gaussian/g16-c01/avx2/g16/l1.exe "/gpfs/fs2/scratch/bweight/software/many_molecule_many_mode_NAMD/src/NAMD/TEST_RESCALE/G16/GS_NEW/Gau-6374.inp" -scrdir="/gpfs/fs2/scratch/bweight/software/many_molecule_many_mode_NAMD/src/NAMD/TEST_RESCALE/G16/GS_NEW/"
 Entering Link 1 = /software/gaussian/g16-c01/avx2/g16/l1.exe PID=      6375.
  
 Copyright (c) 1988-2019, Gaussian, Inc.  All Rights Reserved.
  
 This is part of the Gaussian(R) 16 program.  It is based on
 the Gaussian(R) 09 system (copyright 2009, Gaussian, Inc.),
 the Gaussian(R) 03 system (copyright 2003, Gaussian, Inc.),
 the Gaussian(R) 98 system (copyright 1998, Gaussian, Inc.),
 the Gaussian(R) 94 system (copyright 1995, Gaussian, Inc.),
 the Gaussian 92(TM) system (copyright 1992, Gaussian, Inc.),
 the Gaussian 90(TM) system (copyright 1990, Gaussian, Inc.),
 the Gaussian 88(TM) system (copyright 1988, Gaussian, Inc.),
 the Gaussian 86(TM) system (copyright 1986, Carnegie Mellon
 University), and the Gaussian 82(TM) system (copyright 1983,
 Carnegie Mellon University). Gaussian is a federally registered
 trademark of Gaussian, Inc.
  
 This software contains proprietary and confidential information,
 including trade secrets, belonging to Gaussian, Inc.
  
 This software is provided under written license and may be
 used, copied, transmitted, or stored only in accord with that
 written license.
  
 The following legend is applicable only to US Government
 contracts under FAR:
  
                    RESTRICTED RIGHTS LEGEND
  
 Use, reproduction and disclosure by the US Government is
 subject to restrictions as set forth in subparagraphs (a)
 and (c) of the Commercial Computer Software - Restricted
 Rights clause in FAR 52.227-19.
  
 Gaussian, Inc.
 340 Quinnipiac St., Bldg. 40, Wallingford CT 06492
  
  
 ---------------------------------------------------------------
 Warning -- This program may not be used in any manner that
 competes with the business of Gaussian, Inc. or will provide
 assistance to any competitor of Gaussian, Inc.  The licensee
 of this program is prohibited from giving any competitor of
 Gaussian, Inc. access to this program.  By using this program,
 the user acknowledges that Gaussian, Inc. is engaged in the
 business of creating and licensing software in the field of
 computational chemistry and represents and warrants to the
 licensee that it is not a competitor of Gaussian, Inc. and that
 it will not use this program in any manner prohibited above.
 ---------------------------------------------------------------
  

 Cite this work as:
 Gaussian 16, Revision C.01,
 M. J. Frisch, G. W. Trucks, H. B. Schlegel, G. E. Scuseria, 
 M. A. Robb, J. R. Cheeseman, G. Scalmani, V. Barone, 
 G. A. Petersson, H. Nakatsuji, X. Li, M. Caricato, A. V. Marenich, 
 J. Bloino, B. G. Janesko, R. Gomperts, B. Mennucci, H. P. Hratchian, 
 J. V. Ortiz, A. F. Izmaylov, J. L. Sonnenberg, D. Williams-Young, 
 F. Ding, F. Lipparini, F. Egidi, J. Goings, B. Peng, A. Petrone, 
 T. Henderson, D. Ranasinghe, V. G. Zakrzewski, J. Gao, N. Rega, 
 G. Zheng, W. Liang, M. Hada, M. Ehara, K. Toyota, R. Fukuda, 
 J. Hasegawa, M. Ishida, T. Nakajima, Y. Honda, O. Kitao, H. Nakai, 
 T. Vreven, K. Throssell, J. A. Montgomery, Jr., J. E. Peralta, 
 F. Ogliaro, M. J. Bearpark, J. J. Heyd, E. N. Brothers, K. N. Kudin, 
 V. N. Staroverov, T. A. Keith, R. Kobayashi, J. Normand, 
 K. Raghavachari, A. P. Rendell, J. C. Burant, S. S. Iyengar, 
 J. Tomasi, M. Cossi, J. M. Millam, M. Klene, C. Adamo, R. Cammi, 
 J. W. Ochterski, R. L. Martin, K. Morokuma, O. Farkas, 
 J. B. Foresman, and D. J. Fox, Gaussian, Inc., Wallingford CT, 2019.
 
 ******************************************
 Gaussian 16:  ES64L-G16RevC.01  3-Jul-2019
                12-Jan-2023 
 ******************************************
 %oldchk=../GS_OLD/geometry.chk
 %chk=geometry.chk
 %nprocshared=24
 Will use up to   24 processors via shared memory.
 %mem=5GB
 Copying data from "../GS_OLD/geometry.chk" to current chk file "geometry.chk"
 IOpt=  2 FromEx=T IUOpen= 4 IOptOp= 5 NList=   0 IFRang= 0 IUIn= 4 IUOut= 2.
 -------------------------------------------------------
 # WB97XD/6-311G SCF=XQC FORCE nosym pop=full guess=read
 -------------------------------------------------------
 1/10=7,30=1,38=1/1,3;
 2/12=2,15=1,17=6,18=5,40=1/2;
 3/5=4,6=6,11=2,25=1,30=1,71=1,74=-58,116=-2/1,2,3;
 4/5=1/1;
 5/5=2,8=3,13=1,38=6/2,8;
 6/7=3,28=1/1;
 7/29=1,30=1/1,2,3,16;
 1/10=7,30=1/3;
 99//99;
 ------------
 MD Step 1000
 ------------
 Symbolic Z-matrix:
 Charge =  0 Multiplicity = 1
 C                    -0.332    -0.57468   0.00317 
 H                     0.20465  -1.5382   -0.00105 
 H                    -1.42267  -0.60033  -0.00243 
 C                     0.33115   0.57379   0.00167 
 H                    -0.16013   1.55211  -0.00465 
 H                     1.43441   0.64313  -0.0035 
 

 GradGradGradGradGradGradGradGradGradGradGradGradGradGradGradGradGradGrad
 Berny optimization.
 Initialization pass.
 Trust Radius=3.00D-01 FncErr=1.00D-07 GrdErr=1.00D-07 EigMax=2.50D+02 EigMin=1.00D-04
 Number of steps in this run=      2 maximum allowed number of steps=      2.
 GradGradGradGradGradGradGradGradGradGradGradGradGradGradGradGradGradGrad

                          Input orientation:                          
 ---------------------------------------------------------------------
 Center     Atomic      Atomic             Coordinates (Angstroms)
 Number     Number       Type             X           Y           Z
 ---------------------------------------------------------------------
      1          6           0       -0.331996   -0.574682    0.003173
      2          1           0        0.204648   -1.538200   -0.001049
      3          1           0       -1.422672   -0.600326   -0.002430
      4          6           0        0.331146    0.573793    0.001672
      5          1           0       -0.160134    1.552111   -0.004654
      6          1           0        1.434407    0.643128   -0.003503
 ---------------------------------------------------------------------
                    Distance matrix (angstroms):
                    1          2          3          4          5
     1  C    0.000000
     2  H    1.102892   0.000000
     3  H    1.090991   1.878238   0.000000
     4  C    1.326181   2.115779   2.110557   0.000000
     5  H    2.133740   3.111768   2.495394   1.094761   0.000000
     6  H    2.145527   2.504098   3.115939   1.105449   1.835432
                    6
     6  H    0.000000
 Symmetry turned off by external request.
 Stoichiometry    C2H4
 Framework group  C1[X(C2H4)]
 Deg. of freedom    12
 Full point group                 C1      NOp   1
 Rotational constants (GHZ):         145.4145723          29.9906872          24.8631362
 Standard basis: 6-311G (5D, 7F)
    38 basis functions,    72 primitive gaussians,    38 cartesian basis functions
     8 alpha electrons        8 beta electrons
       nuclear repulsion energy        33.2326125600 Hartrees.
 NAtoms=    6 NActive=    6 NUniq=    6 SFac= 1.00D+00 NAtFMM=   60 NAOKFM=F Big=F
 Integral buffers will be    131072 words long.
 Raffenetti 2 integral format.
 Two-electron integral symmetry is turned off.
 Nuclear repulsion after empirical dispersion term =       33.2317818198 Hartrees.
 One-electron integrals computed using PRISM.
 NBasis=    38 RedAO= T EigKep=  6.18D-03  NBF=    38
 NBsUse=    38 1.00D-06 EigRej= -1.00D+00 NBFU=    38
 Initial guess from the checkpoint file:  "geometry.chk"
 B after Tr=    -0.000177   -0.000267   -0.000450
         Rot=    1.000000   -0.000005    0.000004    0.000004 Ang=  -0.00 deg.
 Keep R1 ints in memory in canonical form, NReq=21321136.
 Requested convergence on RMS density matrix=1.00D-08 within  32 cycles.
 Requested convergence on MAX density matrix=1.00D-06.
 Requested convergence on             energy=1.00D-06.
 No special actions if energy rises.
 SCF Done:  E(RwB97XD) =  -78.5566020965     A.U. after    8 cycles
            NFock=  8  Conv=0.68D-08     -V/T= 2.0047
 QCSCF skips out because SCF is already converged.

 **********************************************************************

            Population analysis using the SCF Density.

 **********************************************************************

 Alpha  occ. eigenvalues --  -10.28770 -10.28673  -0.86622  -0.67267  -0.55882
 Alpha  occ. eigenvalues --   -0.51303  -0.43444  -0.35889
 Alpha virt. eigenvalues --    0.08259   0.14188   0.16449   0.17031   0.24176
 Alpha virt. eigenvalues --    0.38004   0.39163   0.40000   0.46272   0.49030
 Alpha virt. eigenvalues --    0.49254   0.59251   0.66503   0.69269   0.77412
 Alpha virt. eigenvalues --    0.77809   0.84387   0.96243   2.23141   2.28775
 Alpha virt. eigenvalues --    2.33594   2.40896   2.67372   2.81804   2.87779
 Alpha virt. eigenvalues --    2.95016   3.15076   3.32033  23.35151  23.71610
     Molecular Orbital Coefficients:
                           1         2         3         4         5
                           O         O         O         O         O
     Eigenvalues --   -10.28770 -10.28673  -0.86622  -0.67267  -0.55882
   1 1   C  1S          0.43328  -0.36010  -0.08819   0.06716  -0.00038
   2        2S          0.35674  -0.29622  -0.13934   0.10759  -0.00062
   3        2PX         0.00012   0.00011   0.02698   0.03643   0.13496
   4        2PY         0.00021   0.00018   0.04821   0.06015  -0.07168
   5        2PZ        -0.00000   0.00000  -0.00027   0.00027   0.00013
   6        3S          0.01068  -0.01006   0.37319  -0.29325   0.00175
   7        3PX        -0.00018  -0.00074   0.03476   0.05897   0.21128
   8        3PY        -0.00029  -0.00130   0.06190   0.09840  -0.11311
   9        3PZ        -0.00000   0.00000  -0.00043   0.00050   0.00020
  10        4S         -0.00688   0.01362   0.18930  -0.22763   0.00098
  11        4PX         0.00015   0.00219   0.00487   0.02373   0.11052
  12        4PY         0.00025   0.00377   0.00889   0.04110  -0.06019
  13        4PZ         0.00001  -0.00001  -0.00014   0.00026   0.00010
  14 2   H  1S         -0.00007   0.00001   0.05076  -0.08782   0.09807
  15        2S         -0.00016  -0.00027   0.05209  -0.10572   0.12439
  16        3S          0.00169  -0.00074  -0.00164  -0.01536   0.04032
  17 3   H  1S         -0.00008   0.00001   0.05219  -0.09103  -0.10180
  18        2S         -0.00017  -0.00026   0.05296  -0.10883  -0.12827
  19        3S          0.00172  -0.00075  -0.00168  -0.01623  -0.04150
  20 4   C  1S          0.35994   0.43341  -0.08779  -0.06749  -0.00037
  21        2S          0.29641   0.35659  -0.13862  -0.10822  -0.00059
  22        2PX        -0.00013   0.00010  -0.02824   0.03771   0.12191
  23        2PY        -0.00021   0.00018  -0.04740   0.06799  -0.07642
  24        2PZ         0.00000  -0.00000  -0.00012  -0.00040   0.00013
  25        3S          0.00862   0.01182   0.37088   0.29523   0.00161
  26        3PX         0.00031  -0.00071  -0.03524   0.06136   0.19083
  27        3PY         0.00056  -0.00121  -0.05899   0.10980  -0.11842
  28        3PZ        -0.00001  -0.00000  -0.00023  -0.00071   0.00019
  29        4S         -0.00409  -0.01463   0.18778   0.23269   0.00048
  30        4PX        -0.00055   0.00209  -0.00525   0.02659   0.10342
  31        4PY        -0.00102   0.00360  -0.00868   0.04601  -0.06325
  32        4PZ         0.00001   0.00001  -0.00011  -0.00035   0.00010
  33 5   H  1S         -0.00008  -0.00002   0.05091   0.09417  -0.09348
  34        2S         -0.00021   0.00023   0.05157   0.11151  -0.11750
  35        3S          0.00152   0.00105  -0.00116   0.01693  -0.03794
  36 6   H  1S         -0.00007  -0.00001   0.04944   0.09179   0.08911
  37        2S         -0.00022   0.00024   0.05072   0.10935   0.11263
  38        3S          0.00148   0.00102  -0.00125   0.01624   0.03666
                           6         7         8         9        10
                           O         O         O         V         V
     Eigenvalues --    -0.51303  -0.43444  -0.35889   0.08259   0.14188
   1 1   C  1S         -0.00407   0.00018  -0.00017   0.00047  -0.03449
   2        2S         -0.00612   0.00031  -0.00028   0.00078  -0.05533
   3        2PX         0.09432  -0.11361  -0.00060   0.00030  -0.03199
   4        2PY         0.16880   0.06722  -0.00075   0.00025  -0.06579
   5        2PZ         0.00068  -0.00011   0.17980  -0.18876  -0.00043
   6        3S          0.02223  -0.00066   0.00082  -0.00233   0.12060
   7        3PX         0.13632  -0.18209  -0.00085   0.00045  -0.03718
   8        3PY         0.24563   0.10838  -0.00101   0.00037  -0.08052
   9        3PZ         0.00110  -0.00017   0.28891  -0.27775  -0.00068
  10        4S         -0.05457  -0.00312   0.00114  -0.00286   1.25060
  11        4PX         0.06836  -0.11440  -0.00069   0.00231  -0.20262
  12        4PY         0.12434   0.06857  -0.00081   0.00297  -0.40122
  13        4PZ         0.00064  -0.00010   0.26493  -0.70487  -0.00248
  14 2   H  1S         -0.08166  -0.11758   0.00001   0.00072  -0.01683
  15        2S         -0.11226  -0.18282   0.00032   0.00116  -0.04681
  16        3S         -0.04134  -0.08582   0.00018   0.00316  -0.86137
  17 3   H  1S         -0.07930   0.11547   0.00003   0.00073  -0.01283
  18        2S         -0.10838   0.17869   0.00036   0.00121  -0.03732
  19        3S         -0.03958   0.08360   0.00020   0.00317  -0.79557
  20 4   C  1S         -0.00792  -0.00044  -0.00013  -0.00043  -0.03462
  21        2S         -0.01236  -0.00073  -0.00021  -0.00071  -0.05556
  22        2PX        -0.09863   0.12199   0.00056   0.00026   0.04037
  23        2PY        -0.16279  -0.07161   0.00119   0.00067   0.06041
  24        2PZ         0.00106   0.00009   0.17959   0.18883  -0.00047
  25        3S          0.03972   0.00204   0.00060   0.00215   0.12142
  26        3PX        -0.14505   0.19557   0.00078   0.00040   0.04989
  27        3PY        -0.23753  -0.11387   0.00171   0.00101   0.07196
  28        3PZ         0.00164   0.00014   0.28811   0.27777  -0.00071
  29        4S         -0.03326   0.00315   0.00108   0.00213   1.22735
  30        4PX        -0.07511   0.12474   0.00058   0.00214   0.26109
  31        4PY        -0.12164  -0.07206   0.00135   0.00455   0.40703
  32        4PZ         0.00092   0.00008   0.26531   0.70531  -0.00285
  33 5   H  1S         -0.07494  -0.12289   0.00003  -0.00064  -0.01031
  34        2S         -0.10123  -0.19077   0.00033  -0.00102  -0.03485
  35        3S         -0.03714  -0.09017   0.00019  -0.00279  -0.80418
  36 6   H  1S         -0.08065   0.12266   0.00005  -0.00066  -0.01412
  37        2S         -0.10946   0.19159   0.00037  -0.00108  -0.04423
  38        3S         -0.04036   0.09071   0.00021  -0.00294  -0.87044
                          11        12        13        14        15
                           V         V         V         V         V
     Eigenvalues --     0.16449   0.17031   0.24176   0.38004   0.39163
   1 1   C  1S          0.00188  -0.04416   0.00010   0.01102   0.00114
   2        2S          0.00304  -0.07203   0.00015   0.01560   0.00174
   3        2PX         0.09973  -0.01854   0.09939  -0.03539  -0.02568
   4        2PY        -0.05450  -0.03871  -0.05684  -0.06540   0.01038
   5        2PZ         0.00012  -0.00108   0.00008  -0.00076  -0.00007
   6        3S         -0.00668   0.16277   0.00028   0.02983   0.00106
   7        3PX         0.14317  -0.00973   0.10621  -0.04568  -0.10778
   8        3PY        -0.07990  -0.02667  -0.06175  -0.09263   0.05164
   9        3PZ         0.00017  -0.00154   0.00008  -0.00162  -0.00015
  10        4S         -0.07444   1.38258  -0.02478  -2.95113  -0.24218
  11        4PX         0.57927  -0.10913   1.16263  -1.64193  -0.55049
  12        4PY        -0.30667  -0.21824  -0.66762  -2.87600   0.07964
  13        4PZ         0.00075  -0.00714   0.00097  -0.00416  -0.00074
  14 2   H  1S         -0.03036  -0.02542   0.01202  -0.05376   0.07739
  15        2S         -0.07956  -0.01923  -0.02525  -0.64813   0.77263
  16        3S         -1.01121  -0.99735  -1.52778  -0.34720  -0.38652
  17 3   H  1S          0.03049  -0.02433  -0.01390  -0.04379  -0.07922
  18        2S          0.07936  -0.01967   0.02003  -0.56256  -0.78726
  19        3S          1.11080  -0.96588   1.55945  -0.43471   0.30026
  20 4   C  1S          0.00059   0.04319  -0.00015  -0.01968  -0.00044
  21        2S          0.00092   0.07036  -0.00025  -0.03210  -0.00060
  22        2PX         0.09945  -0.02277  -0.10038  -0.03971  -0.03020
  23        2PY        -0.05930  -0.03935   0.05754  -0.07216   0.01036
  24        2PZ         0.00007   0.00112  -0.00007   0.00065   0.00006
  25        3S         -0.00149  -0.15669   0.00033   0.03551  -0.00156
  26        3PX         0.14365  -0.01666  -0.11238  -0.08900  -0.11123
  27        3PY        -0.08505  -0.02823   0.06304  -0.16668   0.05184
  28        3PZ         0.00010   0.00151  -0.00006   0.00084   0.00007
  29        4S         -0.04099  -1.37227   0.02094   3.57678   0.22612
  30        4PX         0.53537  -0.12439  -1.14443  -1.27966  -0.57601
  31        4PY        -0.32554  -0.22272   0.66045  -2.27352   0.06274
  32        4PZ         0.00037   0.00738  -0.00089   0.00883   0.00052
  33 5   H  1S          0.03112   0.02408   0.00886   0.01446  -0.07917
  34        2S          0.07184   0.02093  -0.02766   0.11865  -0.77151
  35        3S          1.06807   0.98444  -1.55934   0.46762   0.44944
  36 6   H  1S         -0.03234   0.02398  -0.00725   0.00605   0.08710
  37        2S         -0.07357   0.01798   0.02970   0.04176   0.87577
  38        3S         -1.01566   0.96294   1.53450   0.49287  -0.41471
                          16        17        18        19        20
                           V         V         V         V         V
     Eigenvalues --     0.40000   0.46272   0.49030   0.49254   0.59251
   1 1   C  1S         -0.01782  -0.00728   0.04815  -0.00049  -0.00009
   2        2S         -0.03183  -0.02024   0.08166  -0.00079  -0.00017
   3        2PX         0.02494   0.05926  -0.01745   0.00044   0.00037
   4        2PY         0.04607   0.10252  -0.02410   0.00043   0.00029
   5        2PZ        -0.00008   0.00007  -0.00216  -0.15158  -0.19304
   6        3S          0.08889   0.32803  -0.13809  -0.00005  -0.00001
   7        3PX         0.10225   0.23841   0.00598   0.00036   0.00126
   8        3PY         0.19227   0.40985   0.02273  -0.00051   0.00097
   9        3PZ        -0.00100   0.00058  -0.00946  -0.62780  -0.68618
  10        4S          2.48076  -0.47773  -3.16861   0.04398   0.01204
  11        4PX         0.11405  -0.29698  -0.77794   0.01185   0.00379
  12        4PY         0.23002  -0.55264  -1.35266   0.02190   0.00809
  13        4PZ        -0.00100   0.00147   0.02242   0.68897   1.24510
  14 2   H  1S         -0.02700   0.04384   0.07324  -0.00104  -0.00029
  15        2S         -0.55787   0.43794   0.87648  -0.01135  -0.00196
  16        3S          0.26396  -0.15066  -0.63483   0.01074   0.00404
  17 3   H  1S         -0.03419   0.04672   0.07049  -0.00100  -0.00027
  18        2S         -0.62268   0.47215   0.84729  -0.01105  -0.00161
  19        3S          0.28069  -0.15193  -0.59738   0.01030   0.00386
  20 4   C  1S         -0.00257  -0.00321  -0.05009   0.00094   0.00012
  21        2S         -0.00797  -0.01322  -0.08620   0.00166   0.00021
  22        2PX         0.00407  -0.05764  -0.01913   0.00014   0.00030
  23        2PY         0.00900  -0.10009  -0.03710   0.00011   0.00082
  24        2PZ        -0.00056   0.00039  -0.00217  -0.15170   0.19305
  25        3S          0.08904   0.31262   0.18747  -0.00479  -0.00032
  26        3PX        -0.05436  -0.23511  -0.02127   0.00002   0.00110
  27        3PY        -0.08363  -0.41212  -0.04245  -0.00069   0.00287
  28        3PZ        -0.00158   0.00172  -0.00874  -0.62862   0.68584
  29        4S         -0.60057  -0.49430   3.26372  -0.04975  -0.01141
  30        4PX         1.17102   0.26541  -0.67666   0.00931   0.00375
  31        4PY         2.12634   0.42662  -1.14160   0.01625   0.00517
  32        4PZ        -0.00715   0.00112   0.00094   0.69013  -1.24435
  33 5   H  1S         -0.04626   0.05689  -0.06961   0.00105   0.00026
  34        2S         -0.84011   0.58768  -0.87732   0.01429   0.00126
  35        3S         -0.18212  -0.18643   0.55984  -0.00691  -0.00386
  36 6   H  1S         -0.03893   0.05499  -0.07030   0.00107   0.00027
  37        2S         -0.75509   0.56110  -0.87510   0.01417   0.00144
  38        3S         -0.19432  -0.20160   0.59029  -0.00738  -0.00384
                          21        22        23        24        25
                           V         V         V         V         V
     Eigenvalues --     0.66503   0.69269   0.77412   0.77809   0.84387
   1 1   C  1S          0.00084   0.00015   0.08348   0.03274   0.00081
   2        2S          0.00173   0.00042   0.17715   0.06993   0.00182
   3        2PX        -0.14335  -0.18965   0.04423   0.10537  -0.00940
   4        2PY         0.08380   0.11370   0.07145   0.17303   0.01277
   5        2PZ        -0.00013  -0.00018   0.00048   0.00042   0.00001
   6        3S         -0.01355  -0.01067  -1.36781  -0.71769  -0.01909
   7        3PX        -0.65313  -0.65132   0.11194   0.46494  -0.23050
   8        3PY         0.37838   0.39174   0.16974   0.76126   0.16379
   9        3PZ        -0.00058  -0.00063   0.00177   0.00129  -0.00011
  10        4S          0.02379   0.07627   2.03210   1.81521  -0.04211
  11        4PX         1.13662   0.71913  -0.27638  -0.67273   4.45983
  12        4PY        -0.66188  -0.42906  -0.41003  -0.88572  -2.57078
  13        4PZ         0.00100   0.00040  -0.00369  -0.00769   0.00378
  14 2   H  1S          0.02635   0.05681   0.02746   0.02053  -0.02638
  15        2S          0.16328   0.60451   0.10400   0.01886  -1.52748
  16        3S         -1.09631  -1.02984  -0.70755  -0.84710  -1.20481
  17 3   H  1S         -0.02565  -0.05669   0.02768   0.02118   0.02923
  18        2S         -0.17653  -0.63952   0.11267  -0.02003   1.56387
  19        3S          1.08546   1.00455  -0.76179  -0.96823   1.20535
  20 4   C  1S          0.00106   0.00017   0.08682  -0.02537   0.00022
  21        2S          0.00213   0.00026   0.18430  -0.05430   0.00041
  22        2PX        -0.13943   0.19523  -0.04861   0.09489   0.01171
  23        2PY         0.07966  -0.10847  -0.08814   0.17326   0.00024
  24        2PZ        -0.00009   0.00016   0.00067  -0.00078  -0.00004
  25        3S         -0.01508   0.00541  -1.43772   0.59273   0.00013
  26        3PX        -0.64385   0.67333  -0.12984   0.42631   0.23854
  27        3PY         0.37051  -0.37251  -0.24113   0.77881  -0.10168
  28        3PZ        -0.00044   0.00055   0.00228  -0.00294  -0.00000
  29        4S          0.01251  -0.06681   2.23548  -1.66162   0.02273
  30        4PX         1.23133  -0.79081   0.28066  -0.44354  -4.27132
  31        4PY        -0.70324   0.44201   0.48136  -1.04366   2.41643
  32        4PZ         0.00082  -0.00037  -0.00495   0.00935  -0.00321
  33 5   H  1S         -0.02233   0.05677   0.02965  -0.01738  -0.02539
  34        2S         -0.11682   0.60324   0.11826   0.02796  -1.44815
  35        3S          1.07352  -1.04595  -0.80696   0.91459  -1.13522
  36 6   H  1S          0.02289  -0.05674   0.02956  -0.01664   0.02500
  37        2S          0.11110  -0.56563   0.09323  -0.01843   1.43113
  38        3S         -1.07662   1.06322  -0.77646   0.80794   1.14716
                          26        27        28        29        30
                           V         V         V         V         V
     Eigenvalues --     0.96243   2.23141   2.28775   2.33594   2.40896
   1 1   C  1S          0.09540  -0.01021  -0.01384   0.00029   0.00044
   2        2S          0.19837   0.00135  -0.01403   0.00077   0.00045
   3        2PX        -0.09512  -0.08959  -0.13829   0.33951   0.40739
   4        2PY        -0.16479  -0.16495  -0.23662  -0.19483  -0.23284
   5        2PZ         0.00020  -0.00213  -0.00285   0.00024   0.00042
   6        3S         -1.52639  -0.18337  -0.02895  -0.00208   0.00456
   7        3PX        -0.25396   0.09318   0.21949  -0.41209  -0.56944
   8        3PY        -0.43276   0.18298   0.38982   0.23924   0.32825
   9        3PZ         0.00001   0.00216   0.00346  -0.00029  -0.00056
  10        4S          5.71561  -0.11659  -0.89627  -0.00324   0.02562
  11        4PX         1.21327   0.05000  -0.19042  -0.02733  -0.95863
  12        4PY         2.02228   0.06262  -0.35295   0.00628   0.53598
  13        4PZ        -0.00507   0.00052   0.00176  -0.00005  -0.00091
  14 2   H  1S          0.01608  -0.71726  -0.77442  -0.72302  -0.64450
  15        2S         -0.29147   1.02320   1.16529   1.10364   1.43552
  16        3S         -0.05972  -0.31135  -0.46369  -0.48999  -0.37493
  17 3   H  1S          0.01632  -0.71220  -0.77789   0.70637   0.66449
  18        2S         -0.26662   1.01861   1.17366  -1.08277  -1.47772
  19        3S         -0.04506  -0.29217  -0.45343   0.47530   0.36769
  20 4   C  1S         -0.09427  -0.01118   0.01282   0.00054  -0.00034
  21        2S         -0.19579  -0.00091   0.01377   0.00080  -0.00055
  22        2PX        -0.09586   0.12786  -0.13187   0.30264  -0.42022
  23        2PY        -0.16539   0.22259  -0.21906  -0.17582   0.24000
  24        2PZ         0.00024  -0.00254   0.00308   0.00024  -0.00031
  25        3S          1.50308  -0.16966   0.01218  -0.00033  -0.00054
  26        3PX        -0.24892  -0.15867   0.22325  -0.37062   0.58804
  27        3PY        -0.43533  -0.26973   0.36445   0.21283  -0.33505
  28        3PZ         0.00110   0.00269  -0.00402  -0.00028   0.00044
  29        4S         -5.70632  -0.18053   0.90859   0.01922  -0.01483
  30        4PX         1.13649  -0.02242  -0.19911   0.08725   0.89103
  31        4PY         2.03097  -0.05164  -0.32076  -0.05003  -0.51852
  32        4PZ        -0.00033   0.00082  -0.00082   0.00003   0.00082
  33 5   H  1S         -0.01740  -0.78018   0.68396   0.69915  -0.69453
  34        2S          0.28450   1.13378  -1.04673  -1.02097   1.48763
  35        3S          0.03880  -0.33849   0.40102   0.49549  -0.41766
  36 6   H  1S         -0.01755  -0.77316   0.71053  -0.68227   0.69024
  37        2S          0.30578   1.12106  -1.08205   0.99211  -1.47252
  38        3S          0.04448  -0.34225   0.43121  -0.49078   0.42521
                          31        32        33        34        35
                           V         V         V         V         V
     Eigenvalues --     2.67372   2.81804   2.87779   2.95016   3.15076
   1 1   C  1S          0.00009  -0.00042  -0.01323   0.00004  -0.00839
   2        2S          0.00009  -0.00128  -0.04608  -0.00021  -0.02780
   3        2PX         0.00113  -0.01248  -0.46306  -0.74666   0.45936
   4        2PY         0.00062  -0.02054  -0.83642   0.41590   0.80492
   5        2PZ        -0.92612   0.93859  -0.02332  -0.00085   0.00045
   6        3S         -0.00042   0.01103   0.41787   0.00393   0.24510
   7        3PX        -0.00104   0.02190   0.83839   0.89351  -0.45361
   8        3PY        -0.00048   0.03648   1.48544  -0.48376  -0.79413
   9        3PZ         0.93954  -1.15140   0.02884   0.00105  -0.00084
  10        4S          0.00257  -0.02511  -0.92623  -0.01223  -0.48099
  11        4PX        -0.00015  -0.01782  -0.72831  -0.67338   0.24002
  12        4PY        -0.00044  -0.03021  -1.29422   0.35549   0.41814
  13        4PZ        -0.33804   0.62703  -0.01794  -0.00079   0.00069
  14 2   H  1S          0.00199   0.00394   0.28175  -0.38227  -0.22452
  15        2S         -0.00232  -0.00282  -0.24518   0.39625   0.17119
  16        3S         -0.00037  -0.00687  -0.29594   0.26283   0.07209
  17 3   H  1S          0.00203   0.00383   0.26893   0.38590  -0.22356
  18        2S         -0.00244  -0.00254  -0.22316  -0.39558   0.16995
  19        3S         -0.00049  -0.00706  -0.29856  -0.28042   0.07780
  20 4   C  1S          0.00008   0.00040   0.01297   0.00059  -0.00718
  21        2S          0.00007   0.00131   0.04781   0.00144  -0.02373
  22        2PX        -0.00103  -0.01132  -0.42081  -0.79426  -0.49559
  23        2PY        -0.00291  -0.02114  -0.75420   0.44004  -0.87731
  24        2PZ        -0.92423  -0.94040   0.02507  -0.00031   0.00291
  25        3S         -0.00029  -0.01158  -0.44227  -0.01123   0.21016
  26        3PX         0.00095   0.02065   0.79247   0.94871   0.52535
  27        3PY         0.00274   0.03778   1.40853  -0.51702   0.93922
  28        3PZ         0.93724   1.15314  -0.03219   0.00035  -0.00348
  29        4S          0.00222   0.02511   0.93381   0.03016  -0.40169
  30        4PX         0.00015  -0.01761  -0.72773  -0.69002  -0.31528
  31        4PY        -0.00031  -0.03157  -1.27752   0.36945  -0.56831
  32        4PZ        -0.33682  -0.62752   0.02101  -0.00026   0.00250
  33 5   H  1S          0.00187  -0.00481  -0.29716   0.40397  -0.26076
  34        2S         -0.00224   0.00387   0.26658  -0.41027   0.20257
  35        3S         -0.00034   0.00682   0.29597  -0.25820   0.12098
  36 6   H  1S          0.00192  -0.00494  -0.29566  -0.41533  -0.25034
  37        2S         -0.00240   0.00416   0.27287   0.42184   0.19482
  38        3S         -0.00029   0.00644   0.27642   0.25853   0.11392
                          36        37        38
                           V         V         V
     Eigenvalues --     3.32033  23.35151  23.71610
   1 1   C  1S         -0.00041  -1.42530  -1.44127
   2        2S         -0.00058   1.52001   1.55914
   3        2PX         0.77094  -0.00588   0.01187
   4        2PY        -0.43159  -0.00958   0.02092
   5        2PZ         0.00071  -0.00008  -0.00006
   6        3S          0.00024  -0.29797  -0.40037
   7        3PX        -1.10386   0.02327  -0.05744
   8        3PY         0.61465   0.03867  -0.10014
   9        3PZ        -0.00103   0.00022   0.00022
  10        4S         -0.01505   0.27798   0.78102
  11        4PX         1.94984  -0.02484   0.13595
  12        4PY        -1.09025  -0.04206   0.23511
  13        4PZ         0.00177  -0.00040  -0.00076
  14 2   H  1S          0.54465   0.01262   0.00587
  15        2S         -0.85228   0.00789  -0.01426
  16        3S         -0.45040  -0.08321  -0.03740
  17 3   H  1S         -0.55663   0.01433   0.00708
  18        2S          0.86898   0.00741  -0.01456
  19        3S          0.47357  -0.08515  -0.03788
  20 4   C  1S          0.00025  -1.43623   1.43030
  21        2S          0.00010   1.53163  -1.54723
  22        2PX        -0.72422   0.00559   0.01231
  23        2PY         0.41351   0.01026   0.02079
  24        2PZ        -0.00059  -0.00010   0.00000
  25        3S          0.00285  -0.29955   0.39692
  26        3PX         1.03555  -0.02253  -0.05819
  27        3PY        -0.59971  -0.04056  -0.09970
  28        3PZ         0.00087   0.00030   0.00005
  29        4S         -0.00393   0.27499  -0.77858
  30        4PX        -1.83591   0.02454   0.13490
  31        4PY         1.06853   0.04561   0.23257
  32        4PZ        -0.00156  -0.00046   0.00011
  33 5   H  1S          0.50689   0.01442  -0.00588
  34        2S         -0.79124   0.00733   0.01459
  35        3S         -0.44679  -0.08414   0.03733
  36 6   H  1S         -0.50109   0.01281  -0.00446
  37        2S          0.78442   0.00867   0.01379
  38        3S          0.43503  -0.08200   0.03629
     Density Matrix:
                           1         2         3         4         5
   1 1   C  1S          0.65942
   2        2S          0.56155   0.49208
   3        2PX        -0.00075  -0.00105   0.08414
   4        2PY        -0.00167  -0.00239   0.00420   0.08819
   5        2PZ         0.00002   0.00002  -0.00002  -0.00007   0.06466
   6        3S         -0.08889  -0.15379   0.00359   0.00787  -0.00003
   7        3PX         0.00083   0.00127   0.13029   0.00170  -0.00001
   8        3PY         0.00110   0.00169   0.00169   0.13152  -0.00006
   9        3PZ         0.00003   0.00005  -0.00003  -0.00010   0.10390
  10        4S         -0.07930  -0.11405  -0.01569  -0.02811   0.00011
  11        4PX         0.00020   0.00152   0.07072  -0.00482  -0.00009
  12        4PY         0.00051   0.00291  -0.00490   0.06563  -0.00014
  13        4PZ        -0.00002  -0.00005  -0.00013  -0.00019   0.09527
  14 2   H  1S         -0.02027  -0.03229   0.03412  -0.06311  -0.00013
  15        2S         -0.02258  -0.03611   0.04905  -0.08801  -0.00005
  16        3S          0.00049  -0.00080   0.02138  -0.03328   0.00003
  17 3   H  1S         -0.02075  -0.03303  -0.07249  -0.00257  -0.00023
  18        2S         -0.02288  -0.03655  -0.10074  -0.00216  -0.00017
  19        3S          0.00054  -0.00076  -0.03894   0.00171  -0.00002
  20 4   C  1S          0.00626   0.01008  -0.01097  -0.01895  -0.00005
  21        2S          0.01006   0.01573  -0.01754  -0.03032  -0.00008
  22        2PX         0.01062   0.01696  -0.01220  -0.03256   0.00011
  23        2PY         0.01853   0.02962  -0.03267  -0.05002   0.00027
  24        2PZ        -0.00010  -0.00016  -0.00004   0.00002   0.06458
  25        3S         -0.02713  -0.04117   0.04899   0.08474   0.00023
  26        3PX         0.01634   0.02532  -0.01772  -0.04605   0.00014
  27        3PY         0.02849   0.04416  -0.04608  -0.07101   0.00038
  28        3PZ        -0.00017  -0.00027  -0.00008   0.00000   0.10361
  29        4S          0.00540   0.00389   0.02022   0.03521   0.00037
  30        4PX         0.00309   0.00642  -0.01294  -0.02072   0.00012
  31        4PY         0.00525   0.01098  -0.02076  -0.03699   0.00035
  32        4PZ        -0.00012  -0.00020  -0.00017  -0.00015   0.09541
  33 5   H  1S          0.00425   0.00699  -0.00184  -0.01218  -0.00006
  34        2S          0.00637   0.01060   0.00344  -0.02459   0.00003
  35        3S          0.00334   0.00487   0.00441  -0.01730   0.00004
  36 6   H  1S          0.00419   0.00688  -0.00968  -0.00770  -0.00007
  37        2S          0.00625   0.01041  -0.02307  -0.00930   0.00000
  38        3S          0.00328   0.00479  -0.01721  -0.00485   0.00002
                           6         7         8         9        10
   6        3S          0.45197
   7        3PX        -0.00159   0.20213
   8        3PY        -0.00111  -0.00438   0.19679
   9        3PZ        -0.00009  -0.00001  -0.00008   0.16695
  10        4S          0.27196  -0.02703  -0.04910   0.00015   0.18175
  11        4PX        -0.00675   0.11014  -0.01095  -0.00015  -0.01543
  12        4PY        -0.01232  -0.01105   0.09875  -0.00021  -0.02936
  13        4PZ         0.00021  -0.00017  -0.00023   0.15309   0.00036
  14 2   H  1S          0.08626   0.05517  -0.09879  -0.00022   0.06904
  15        2S          0.09657   0.07969  -0.13728  -0.00010   0.08148
  16        3S          0.00625   0.03509  -0.05126   0.00005   0.01145
  17 3   H  1S          0.08830  -0.11380  -0.00235  -0.00037   0.06894
  18        2S          0.09786  -0.15798  -0.00036  -0.00029   0.08006
  19        3S          0.00630  -0.06080   0.00466  -0.00003   0.01043
  20 4   C  1S         -0.02733  -0.01699  -0.02939  -0.00008   0.00521
  21        2S         -0.04139  -0.02639  -0.04565  -0.00013   0.00377
  22        2PX        -0.04731  -0.01732  -0.04567   0.00017  -0.01761
  23        2PY        -0.08267  -0.04587  -0.07070   0.00043  -0.03083
  24        2PZ         0.00048  -0.00005   0.00005   0.10377   0.00043
  25        3S          0.10538   0.07135   0.12357   0.00041   0.00187
  26        3PX        -0.06830  -0.02534  -0.06432   0.00023  -0.02631
  27        3PY        -0.11922  -0.06448  -0.10028   0.00061  -0.04596
  28        3PZ         0.00079  -0.00011   0.00004   0.16648   0.00071
  29        4S          0.00240   0.03051   0.05331   0.00062  -0.03157
  30        4PX        -0.02271  -0.01944  -0.02868   0.00020  -0.00641
  31        4PY        -0.03909  -0.02883  -0.05310   0.00057  -0.01052
  32        4PZ         0.00060  -0.00024  -0.00017   0.15331   0.00062
  33 5   H  1S         -0.02074  -0.00053  -0.01747  -0.00009  -0.01484
  34        2S         -0.03158   0.00896  -0.03618   0.00005  -0.01923
  35        3S         -0.01245   0.00859  -0.02602   0.00006  -0.00360
  36 6   H  1S         -0.02037  -0.01474  -0.00901  -0.00010  -0.01486
  37        2S         -0.03101  -0.03560  -0.00992   0.00002  -0.01960
  38        3S         -0.01223  -0.02672  -0.00542   0.00004  -0.00395
                          11        12        13        14        15
  11        4PX         0.06114
  12        4PY        -0.00994   0.05114
  13        4PZ        -0.00022  -0.00028   0.14038
  14 2   H  1S          0.03374  -0.05456  -0.00011   0.08080
  15        2S          0.04947  -0.07573   0.00002   0.10958   0.15078
  16        3S          0.02215  -0.02820   0.00006   0.03737   0.05377
  17 3   H  1S         -0.06358   0.00182  -0.00019  -0.01289  -0.02506
  18        2S         -0.08871   0.00499  -0.00008  -0.02499  -0.04439
  19        3S         -0.03450   0.00525   0.00002  -0.01865  -0.02875
  20 4   C  1S         -0.00312  -0.00564  -0.00009   0.00422   0.00662
  21        2S         -0.00649  -0.01163  -0.00015   0.00697   0.01104
  22        2PX        -0.01294  -0.01988   0.00020   0.00184  -0.00305
  23        2PY        -0.02000  -0.03636   0.00047   0.01169   0.02441
  24        2PZ        -0.00012  -0.00007   0.09516  -0.00011  -0.00005
  25        3S          0.02300   0.04092   0.00042  -0.02085  -0.03306
  26        3PX        -0.01983  -0.02781   0.00027   0.00077  -0.00811
  27        3PY        -0.02797  -0.05246   0.00067   0.01707   0.03615
  28        3PZ        -0.00020  -0.00012   0.15266  -0.00016  -0.00006
  29        4S          0.00764   0.01446   0.00060  -0.01702  -0.02319
  30        4PX        -0.01473  -0.01191   0.00022  -0.00199  -0.00919
  31        4PY        -0.01201  -0.02886   0.00059   0.01544   0.02729
  32        4PZ        -0.00026  -0.00023   0.14058  -0.00009   0.00002
  33 5   H  1S          0.00217  -0.01559  -0.00004   0.01143   0.02389
  34        2S          0.00963  -0.02710   0.00010   0.02400   0.04504
  35        3S          0.00796  -0.01565   0.00007   0.01674   0.02817
  36 6   H  1S         -0.01456  -0.00554  -0.00005  -0.00930  -0.01883
  37        2S         -0.02822  -0.00461   0.00008  -0.01914  -0.03529
  38        3S         -0.01741  -0.00069   0.00006  -0.01053  -0.01855
                          16        17        18        19        20
  16        3S          0.02188
  17 3   H  1S         -0.01885   0.08199
  18        2S         -0.02888   0.10991   0.14956
  19        3S         -0.01391   0.03681   0.05246   0.02109
  20 4   C  1S          0.00364   0.00431   0.00669   0.00366   0.65946
  21        2S          0.00535   0.00710   0.01115   0.00537   0.56163
  22        2PX        -0.00402   0.00918   0.02250   0.01696   0.00123
  23        2PY         0.01766   0.00751   0.00948   0.00521   0.00184
  24        2PZ        -0.00002  -0.00010  -0.00002   0.00001   0.00001
  25        3S         -0.01378  -0.02119  -0.03328  -0.01376  -0.08915
  26        3PX        -0.00795   0.01447   0.03529   0.02647  -0.00051
  27        3PY         0.02646   0.00934   0.01103   0.00623  -0.00116
  28        3PZ        -0.00002  -0.00014  -0.00001   0.00002   0.00003
  29        4S         -0.00551  -0.01686  -0.02253  -0.00506  -0.07949
  30        4PX        -0.00767   0.01428   0.02799   0.01737  -0.00025
  31        4PY         0.01593   0.00625   0.00591   0.00136  -0.00026
  32        4PZ         0.00003  -0.00008   0.00006   0.00005  -0.00000
  33 5   H  1S          0.01669  -0.00929  -0.01880  -0.01008  -0.02036
  34        2S          0.02804  -0.01900  -0.03490  -0.01792  -0.02220
  35        3S          0.01498  -0.01041  -0.01825  -0.00953   0.00062
  36 6   H  1S         -0.01018   0.01143   0.02371   0.01635  -0.02003
  37        2S         -0.01828   0.02406   0.04487   0.02763  -0.02214
  38        3S         -0.00977   0.01680   0.02809   0.01480   0.00051
                          21        22        23        24        25
  21        2S          0.49219
  22        2PX         0.00178   0.08339
  23        2PY         0.00264   0.00381   0.08868
  24        2PZ         0.00002   0.00002   0.00001   0.06450
  25        3S         -0.15417  -0.00563  -0.00848  -0.00003   0.45303
  26        3PX        -0.00076   0.12948   0.00173   0.00002  -0.00003
  27        3PY        -0.00176   0.00181   0.13227  -0.00001   0.00134
  28        3PZ         0.00006   0.00004   0.00003   0.10348  -0.00011
  29        4S         -0.11447   0.01439   0.02415   0.00008   0.27364
  30        4PX        -0.00158   0.07277  -0.00510   0.00008   0.00672
  31        4PY        -0.00240  -0.00505   0.06667   0.00016   0.01064
  32        4PZ        -0.00002   0.00014   0.00027   0.09530   0.00010
  33 5   H  1S         -0.03242  -0.03377   0.06427  -0.00028   0.08661
  34        2S         -0.03547  -0.04973   0.08852  -0.00026   0.09489
  35        3S         -0.00060  -0.02258   0.03322  -0.00005   0.00575
  36 6   H  1S         -0.03191   0.07170   0.00287  -0.00019   0.08525
  37        2S         -0.03540   0.10118   0.00104  -0.00013   0.09465
  38        3S         -0.00074   0.04033  -0.00313   0.00000   0.00599
                          26        27        28        29        30
  26        3PX         0.20142
  27        3PY        -0.00319   0.19791
  28        3PZ         0.00003  -0.00001   0.16602
  29        4S          0.02641   0.04395   0.00009   0.18151
  30        4PX         0.11368  -0.01076   0.00012   0.01623   0.06527
  31        4PY        -0.01078   0.10030   0.00027   0.02564  -0.01023
  32        4PZ         0.00018   0.00036   0.15288   0.00031   0.00019
  33 5   H  1S         -0.05403   0.10040  -0.00046   0.06707  -0.03426
  34        2S         -0.08004   0.13777  -0.00042   0.07667  -0.05130
  35        3S         -0.03682   0.05102  -0.00007   0.00927  -0.02385
  36 6   H  1S          0.11316   0.00360  -0.00032   0.06751   0.06551
  37        2S          0.15952  -0.00028  -0.00023   0.07854   0.09282
  38        3S          0.06326  -0.00645   0.00001   0.01034   0.03716
                          31        32        33        34        35
  31        4PY         0.05239
  32        4PZ         0.00044   0.14079
  33 5   H  1S          0.05555  -0.00024   0.08183
  34        2S          0.07635  -0.00016   0.11028   0.15108
  35        3S          0.02841  -0.00000   0.03789   0.05450   0.02248
  36 6   H  1S         -0.00174  -0.00016  -0.01240  -0.02584  -0.01990
  37        2S         -0.00604  -0.00004  -0.02598  -0.04779  -0.03138
  38        3S         -0.00637   0.00005  -0.02017  -0.03156  -0.01558
                          36        37        38
  36 6   H  1S          0.08072
  37        2S          0.10982   0.15181
  38        3S          0.03815   0.05528   0.02294
    Full Mulliken population analysis:
                           1         2         3         4         5
   1 1   C  1S          0.65942
   2        2S          0.49329   0.49208
   3        2PX         0.00000   0.00000   0.08414
   4        2PY         0.00000   0.00000   0.00000   0.08819
   5        2PZ         0.00000   0.00000   0.00000   0.00000   0.06466
   6        3S         -0.02926  -0.06441   0.00000   0.00000   0.00000
   7        3PX         0.00000   0.00000   0.08197   0.00000   0.00000
   8        3PY         0.00000   0.00000   0.00000   0.08274   0.00000
   9        3PZ         0.00000   0.00000   0.00000   0.00000   0.06536
  10        4S         -0.01219  -0.02134   0.00000   0.00000   0.00000
  11        4PX         0.00000   0.00000   0.01557   0.00000   0.00000
  12        4PY         0.00000   0.00000   0.00000   0.01445   0.00000
  13        4PZ         0.00000   0.00000   0.00000   0.00000   0.02098
  14 2   H  1S         -0.00022  -0.00031   0.00167   0.00555   0.00000
  15        2S         -0.00162  -0.00311   0.00413   0.01330   0.00000
  16        3S          0.00004  -0.00008   0.00069   0.00194  -0.00000
  17 3   H  1S         -0.00024  -0.00035   0.00768   0.00001   0.00000
  18        2S         -0.00169  -0.00324   0.01767   0.00001   0.00000
  19        3S          0.00004  -0.00007   0.00259  -0.00000   0.00000
  20 4   C  1S          0.00000   0.00000  -0.00002  -0.00007   0.00000
  21        2S          0.00000  -0.00000  -0.00002  -0.00006   0.00000
  22        2PX        -0.00002  -0.00002   0.00011   0.00092   0.00000
  23        2PY        -0.00007  -0.00006   0.00093   0.00211   0.00000
  24        2PZ        -0.00000  -0.00000  -0.00000   0.00000   0.00045
  25        3S         -0.00064  -0.00108   0.00264   0.00791  -0.00000
  26        3PX        -0.00057  -0.00106   0.00017   0.00570   0.00000
  27        3PY        -0.00173  -0.00319   0.00571   0.01084   0.00000
  28        3PZ        -0.00000  -0.00000  -0.00000   0.00000   0.00641
  29        4S          0.00035   0.00030   0.00092   0.00279  -0.00000
  30        4PX        -0.00018  -0.00046  -0.00072   0.00143   0.00000
  31        4PY        -0.00053  -0.00136   0.00143   0.00089   0.00000
  32        4PZ        -0.00000  -0.00000  -0.00000  -0.00000   0.00911
  33 5   H  1S          0.00000   0.00000  -0.00000  -0.00000   0.00000
  34        2S          0.00001   0.00002   0.00000  -0.00033  -0.00000
  35        3S          0.00008   0.00014   0.00001  -0.00071  -0.00000
  36 6   H  1S          0.00000   0.00000  -0.00000  -0.00000   0.00000
  37        2S          0.00001   0.00002  -0.00025  -0.00007  -0.00000
  38        3S          0.00008   0.00013  -0.00057  -0.00011  -0.00000
                           6         7         8         9        10
   6        3S          0.45197
   7        3PX         0.00000   0.20213
   8        3PY         0.00000   0.00000   0.19679
   9        3PZ         0.00000   0.00000   0.00000   0.16695
  10        4S          0.21069   0.00000   0.00000   0.00000   0.18175
  11        4PX         0.00000   0.07197   0.00000   0.00000   0.00000
  12        4PY         0.00000   0.00000   0.06453   0.00000   0.00000
  13        4PZ         0.00000   0.00000   0.00000   0.10004   0.00000
  14 2   H  1S          0.01559   0.01012   0.03253   0.00000   0.01815
  15        2S          0.04028   0.01887   0.05837   0.00000   0.04675
  16        3S          0.00287   0.00398   0.01044  -0.00000   0.00862
  17 3   H  1S          0.01648   0.04382   0.00002   0.00000   0.01834
  18        2S          0.04156   0.07743   0.00000   0.00000   0.04636
  19        3S          0.00291   0.01413  -0.00003   0.00000   0.00789
  20 4   C  1S         -0.00064  -0.00060  -0.00179   0.00000   0.00033
  21        2S         -0.00109  -0.00110  -0.00330   0.00000   0.00029
  22        2PX         0.00255   0.00017   0.00566   0.00000   0.00080
  23        2PY         0.00772   0.00568   0.01079   0.00000   0.00244
  24        2PZ         0.00000  -0.00000   0.00000   0.00642   0.00000
  25        3S          0.02309   0.01362   0.04086  -0.00000   0.00072
  26        3PX         0.01304  -0.00134   0.01853   0.00000   0.00407
  27        3PY         0.03942   0.01858   0.02806   0.00000   0.01232
  28        3PZ         0.00000  -0.00000   0.00000   0.03648   0.00000
  29        4S          0.00092   0.00472   0.01429  -0.00000  -0.01999
  30        4PX         0.00640  -0.00408   0.00565   0.00000   0.00194
  31        4PY         0.01909   0.00568   0.00093   0.00000   0.00551
  32        4PZ         0.00000  -0.00000  -0.00000   0.04961   0.00000
  33 5   H  1S         -0.00006  -0.00000  -0.00020   0.00000  -0.00083
  34        2S         -0.00130   0.00007  -0.00334  -0.00000  -0.00333
  35        3S         -0.00208   0.00011  -0.00426  -0.00000  -0.00132
  36 6   H  1S         -0.00006  -0.00013  -0.00006   0.00000  -0.00081
  37        2S         -0.00123  -0.00263  -0.00051  -0.00000  -0.00333
  38        3S         -0.00201  -0.00358  -0.00050  -0.00000  -0.00143
                          11        12        13        14        15
  11        4PX         0.06114
  12        4PY         0.00000   0.05114
  13        4PZ         0.00000   0.00000   0.14038
  14 2   H  1S          0.00614   0.01783   0.00000   0.08080
  15        2S          0.01518   0.04173  -0.00000   0.07741   0.15078
  16        3S          0.00534   0.01220  -0.00000   0.01396   0.04242
  17 3   H  1S          0.02381  -0.00002   0.00000  -0.00001  -0.00069
  18        2S          0.05585  -0.00007   0.00000  -0.00068  -0.00570
  19        3S          0.01699  -0.00006  -0.00000  -0.00211  -0.00848
  20 4   C  1S         -0.00018  -0.00057   0.00000   0.00000   0.00002
  21        2S         -0.00046  -0.00144   0.00000   0.00000   0.00003
  22        2PX        -0.00072   0.00137   0.00000  -0.00000   0.00000
  23        2PY         0.00138   0.00088   0.00000  -0.00000  -0.00035
  24        2PZ        -0.00000  -0.00000   0.00909   0.00000   0.00000
  25        3S          0.00649   0.01998  -0.00000  -0.00007  -0.00143
  26        3PX        -0.00416   0.00548   0.00000  -0.00000   0.00005
  27        3PY         0.00551   0.00092   0.00000  -0.00022  -0.00349
  28        3PZ        -0.00000  -0.00000   0.04940   0.00000   0.00000
  29        4S          0.00231   0.00758  -0.00000  -0.00098  -0.00412
  30        4PX        -0.00719   0.00299   0.00000   0.00002   0.00021
  31        4PY         0.00301  -0.00574   0.00000  -0.00243  -0.01021
  32        4PZ        -0.00000  -0.00000   0.08900   0.00000  -0.00000
  33 5   H  1S          0.00003  -0.00238   0.00000   0.00000   0.00000
  34        2S          0.00029  -0.00994  -0.00000   0.00000   0.00016
  35        3S          0.00030  -0.00729  -0.00000   0.00024   0.00149
  36 6   H  1S         -0.00180  -0.00047   0.00000  -0.00000  -0.00004
  37        2S         -0.00844  -0.00095  -0.00000  -0.00004  -0.00092
  38        3S         -0.00666  -0.00018  -0.00000  -0.00047  -0.00255
                          16        17        18        19        20
  16        3S          0.02188
  17 3   H  1S         -0.00213   0.08199
  18        2S         -0.00852   0.07764   0.14956
  19        3S         -0.00728   0.01376   0.04139   0.02109
  20 4   C  1S          0.00009   0.00000   0.00002   0.00009   0.65946
  21        2S          0.00016   0.00000   0.00003   0.00016   0.49336
  22        2PX         0.00001  -0.00000  -0.00028  -0.00059   0.00000
  23        2PY        -0.00074  -0.00000  -0.00008  -0.00012   0.00000
  24        2PZ         0.00000   0.00000   0.00000  -0.00000   0.00000
  25        3S         -0.00236  -0.00007  -0.00146  -0.00237  -0.02935
  26        3PX         0.00008  -0.00016  -0.00288  -0.00368   0.00000
  27        3PY        -0.00440  -0.00007  -0.00060  -0.00058   0.00000
  28        3PZ         0.00000   0.00000   0.00000  -0.00000   0.00000
  29        4S         -0.00206  -0.00098  -0.00404  -0.00190  -0.01222
  30        4PX         0.00022  -0.00188  -0.00877  -0.00682   0.00000
  31        4PY        -0.00749  -0.00055  -0.00124  -0.00036   0.00000
  32        4PZ        -0.00000   0.00000  -0.00000  -0.00000   0.00000
  33 5   H  1S          0.00023  -0.00000  -0.00004  -0.00046  -0.00023
  34        2S          0.00149  -0.00004  -0.00093  -0.00249  -0.00163
  35        3S          0.00253  -0.00047  -0.00254  -0.00304   0.00005
  36 6   H  1S         -0.00046   0.00000   0.00000   0.00023  -0.00021
  37        2S         -0.00251   0.00000   0.00016   0.00145  -0.00158
  38        3S         -0.00309   0.00023   0.00148   0.00249   0.00004
                          21        22        23        24        25
  21        2S          0.49219
  22        2PX         0.00000   0.08339
  23        2PY         0.00000   0.00000   0.08868
  24        2PZ         0.00000   0.00000   0.00000   0.06450
  25        3S         -0.06457   0.00000   0.00000   0.00000   0.45303
  26        3PX         0.00000   0.08146   0.00000   0.00000   0.00000
  27        3PY         0.00000   0.00000   0.08321   0.00000   0.00000
  28        3PZ         0.00000   0.00000   0.00000   0.06510   0.00000
  29        4S         -0.02142   0.00000   0.00000   0.00000   0.21199
  30        4PX         0.00000   0.01603   0.00000   0.00000   0.00000
  31        4PY         0.00000   0.00000   0.01468   0.00000   0.00000
  32        4PZ         0.00000   0.00000   0.00000   0.02099   0.00000
  33 5   H  1S         -0.00033   0.00158   0.00599   0.00000   0.01600
  34        2S         -0.00311   0.00390   0.01381   0.00000   0.04007
  35        3S         -0.00006   0.00068   0.00198   0.00000   0.00265
  36 6   H  1S         -0.00030   0.00712   0.00002   0.00000   0.01530
  37        2S         -0.00303   0.01741   0.00001   0.00000   0.03932
  38        3S         -0.00007   0.00269  -0.00001  -0.00000   0.00274
                          26        27        28        29        30
  26        3PX         0.20142
  27        3PY         0.00000   0.19791
  28        3PZ         0.00000   0.00000   0.16602
  29        4S          0.00000   0.00000   0.00000   0.18151
  30        4PX         0.07428   0.00000   0.00000   0.00000   0.06527
  31        4PY         0.00000   0.06554   0.00000   0.00000   0.00000
  32        4PZ         0.00000   0.00000   0.09990   0.00000   0.00000
  33 5   H  1S          0.00928   0.03433   0.00000   0.01778   0.00576
  34        2S          0.01757   0.06022   0.00000   0.04427   0.01450
  35        3S          0.00384   0.01061   0.00000   0.00700   0.00528
  36 6   H  1S          0.04237   0.00008   0.00000   0.01770   0.02445
  37        2S          0.07736  -0.00001   0.00000   0.04496   0.05844
  38        3S          0.01473  -0.00009  -0.00000   0.00777   0.01838
                          31        32        33        34        35
  31        4PY         0.05239
  32        4PZ         0.00000   0.14079
  33 5   H  1S          0.01859   0.00000   0.08183
  34        2S          0.04299   0.00000   0.07790   0.15108
  35        3S          0.01253   0.00000   0.01416   0.04300   0.02248
  36 6   H  1S         -0.00004   0.00000  -0.00001  -0.00082  -0.00238
  37        2S         -0.00024   0.00000  -0.00082  -0.00673  -0.00968
  38        3S         -0.00020  -0.00000  -0.00241  -0.00973  -0.00840
                          36        37        38
  36 6   H  1S          0.08072
  37        2S          0.07758   0.15181
  38        3S          0.01426   0.04361   0.02294
     Gross orbital populations:
                           1
   1 1   C  1S          1.10434
   2        2S          0.88585
   3        2PX         0.22648
   4        2PY         0.23742
   5        2PZ         0.16698
   6        3S          0.79244
   7        3PX         0.55958
   8        3PY         0.55619
   9        3PZ         0.42486
  10        4S          0.50240
  11        4PX         0.26167
  12        4PY         0.21195
  13        4PZ         0.40888
  14 2   H  1S          0.27247
  15        2S          0.46843
  16        3S          0.08808
  17 3   H  1S          0.27613
  18        2S          0.46639
  19        3S          0.08478
  20 4   C  1S          1.10436
  21        2S          0.88585
  22        2PX         0.22421
  23        2PY         0.23888
  24        2PZ         0.16656
  25        3S          0.79302
  26        3PX         0.55557
  27        3PY         0.55885
  28        3PZ         0.42332
  29        4S          0.49945
  30        4PX         0.27115
  31        4PY         0.21289
  32        4PZ         0.40940
  33 5   H  1S          0.27567
  34        2S          0.46763
  35        3S          0.08695
  36 6   H  1S          0.27224
  37        2S          0.46918
  38        3S          0.08950
          Condensed to atoms (all electrons):
               1          2          3          4          5          6
     1  C    5.029490   0.386940   0.387838   0.606640  -0.036307  -0.035555
     2  H    0.386940   0.521053  -0.035600  -0.039492   0.006149  -0.010075
     3  H    0.387838  -0.035600   0.518209  -0.039176  -0.010015   0.006048
     4  C    0.606640  -0.039492  -0.039176   5.044529   0.385898   0.385107
     5  H   -0.036307   0.006149  -0.010015   0.385898   0.525501  -0.040972
     6  H   -0.035555  -0.010075   0.006048   0.385107  -0.040972   0.526360
 Mulliken charges:
               1
     1  C   -0.339047
     2  H    0.171024
     3  H    0.172696
     4  C   -0.343506
     5  H    0.169747
     6  H    0.169086
 Sum of Mulliken charges =   0.00000
 Mulliken charges with hydrogens summed into heavy atoms:
               1
     1  C    0.004673
     4  C   -0.004673
 Electronic spatial extent (au):  <R**2>=             83.2333
 Charge=              0.0000 electrons
 Dipole moment (field-independent basis, Debye):
    X=             -0.0003    Y=              0.0215    Z=             -0.0175  Tot=              0.0278
 Quadrupole moment (field-independent basis, Debye-Ang):
   XX=            -12.2216   YY=            -12.1829   ZZ=            -15.6214
   XY=              0.0580   XZ=              0.0005   YZ=             -0.0036
 Traceless Quadrupole moment (field-independent basis, Debye-Ang):
   XX=              1.1203   YY=              1.1591   ZZ=             -2.2795
   XY=              0.0580   XZ=              0.0005   YZ=             -0.0036
 Octapole moment (field-independent basis, Debye-Ang**2):
  XXX=             -0.2597  YYY=             -0.0044  ZZZ=             -0.0756  XYY=              0.1386
  XXY=             -0.0067  XXZ=             -0.0406  XZZ=             -0.0682  YZZ=             -0.0366
  YYZ=             -0.0477  XYZ=             -0.0069
 Hexadecapole moment (field-independent basis, Debye-Ang**3):
 XXXX=            -34.1503 YYYY=            -54.7144 ZZZZ=            -17.6792 XXXY=             -7.1522
 XXXZ=              0.0100 YYYX=            -10.5187 YYYZ=              0.0183 ZZZX=              0.0117
 ZZZY=              0.0285 XXYY=            -16.0556 XXZZ=             -9.8600 YYZZ=            -13.5343
 XXYZ=              0.0080 YYXZ=              0.0044 ZZXY=             -3.1738
 N-N= 3.323178181985D+01 E-N=-2.482073861523D+02  KE= 7.819282323470D+01
 Orbital energies and kinetic energies (alpha):
                                 1                 2
   1         O               -10.287701         15.974373
   2         O               -10.286725         15.982205
   3         O                -0.866216          1.552480
   4         O                -0.672674          1.268826
   5         O                -0.558822          0.943890
   6         O                -0.513027          1.288329
   7         O                -0.434437          1.044323
   8         O                -0.358894          1.041985
   9         V                 0.082594          1.178530
  10         V                 0.141875          0.584326
  11         V                 0.164489          0.597514
  12         V                 0.170307          0.674502
  13         V                 0.241759          0.581747
  14         V                 0.380040          0.846409
  15         V                 0.391631          0.933043
  16         V                 0.400002          0.773005
  17         V                 0.462721          1.186261
  18         V                 0.490302          1.424231
  19         V                 0.492540          1.295156
  20         V                 0.592513          1.659676
  21         V                 0.665027          1.563436
  22         V                 0.692690          2.154333
  23         V                 0.774118          2.585377
  24         V                 0.778088          2.139184
  25         V                 0.843874          1.087375
  26         V                 0.962426          3.490063
  27         V                 2.231411          3.929238
  28         V                 2.287752          4.044345
  29         V                 2.335942          4.297438
  30         V                 2.408961          4.523762
  31         V                 2.673720          6.305398
  32         V                 2.818038          6.307011
  33         V                 2.877789          6.126622
  34         V                 2.950156          6.231692
  35         V                 3.150764          6.822208
  36         V                 3.320325          6.397748
  37         V                23.351512         60.070930
  38         V                23.716101         60.211471
 Total kinetic energy from orbitals= 7.819282323470D+01
 Calling FoFJK, ICntrl=      2127 FMM=F ISym2X=0 I1Cent= 0 IOpClX= 0 NMat=1 NMatS=1 NMatT=0.
 -------------------------------------------------------------------
 Center     Atomic                   Forces (Hartrees/Bohr)
 Number     Number              X              Y              Z
 -------------------------------------------------------------------
      1        6           0.002797567   -0.009556755   -0.000767234
      2        1          -0.008362213    0.010023694    0.000374287
      3        1           0.005591887   -0.001900545    0.000365681
      4        6           0.013719299    0.014614215   -0.000728931
      5        1          -0.000460435   -0.007933886    0.000362699
      6        1          -0.013286104   -0.005246723    0.000393497
 -------------------------------------------------------------------
 Cartesian Forces:  Max     0.014614215 RMS     0.007360262

 GradGradGradGradGradGradGradGradGradGradGradGradGradGradGradGradGradGrad
 Berny optimization.
 Search for a local minimum.
 Step number   1 out of a maximum of    2
 All quantities printed in internal units (Hartrees-Bohrs-Radians)
 Second derivative matrix not updated -- first step.
 The second derivative matrix:
                          X1        Y1        Z1        X2        Y2
           X1           0.75561
           Y1           0.11782   0.87838
           Z1           0.00096   0.00082   0.17873
           X2          -0.15763   0.09137   0.00025   0.13522
           Y2           0.09803  -0.28274  -0.00107  -0.11051   0.27209
           Z2           0.00046  -0.00142  -0.05683  -0.00039   0.00112
           X3          -0.34669  -0.00559  -0.00148  -0.00077  -0.00043
           Y3          -0.01209  -0.10902  -0.00031   0.03252   0.01811
           Z3          -0.00188  -0.00030  -0.05797   0.00023   0.00008
           X4          -0.27684  -0.18885   0.00007   0.02318   0.01291
           Y4          -0.18933  -0.49493   0.00021  -0.01338  -0.00745
           Z4           0.00044   0.00086  -0.09985  -0.00010  -0.00013
           X5           0.02388  -0.01379   0.00012  -0.00000   0.00000
           Y5           0.01199  -0.00692   0.00018   0.00000  -0.00000
           Z5          -0.00013   0.00010   0.01822   0.00005  -0.00002
           X6           0.00166  -0.00096   0.00007  -0.00000   0.00000
           Y6          -0.02641   0.01525   0.00017   0.00000  -0.00000
           Z6           0.00014  -0.00006   0.01770  -0.00005   0.00002
                          Z2        X3        Y3        Z3        X4
           Z2           0.02952
           X3          -0.00006   0.34682
           Y3           0.00028   0.00638   0.07543
           Z3           0.01047   0.00162   0.00021   0.03037
           X4           0.00008   0.00063  -0.02681  -0.00007   0.73299
           Y4          -0.00003  -0.00036   0.01548   0.00006   0.12899
           Z4           0.01677  -0.00008  -0.00018   0.01719  -0.00104
           X5          -0.00005  -0.00000   0.00000   0.00005  -0.15053
           Y5           0.00004   0.00000  -0.00000  -0.00004   0.09649
           Z5           0.00991   0.00005  -0.00004  -0.01007  -0.00066
           X6          -0.00005  -0.00000   0.00000   0.00005  -0.32943
           Y6           0.00001   0.00000  -0.00000  -0.00001  -0.02272
           Z6          -0.00985  -0.00005   0.00004   0.01000   0.00162
                          Y4        Z4        X5        Y5        Z5
           Y4           0.89145
           Z4          -0.00255   0.18425
           X5           0.08821  -0.00047   0.12872
           Y5          -0.29837   0.00160  -0.10744   0.28872
           Z5           0.00191  -0.05952   0.00062  -0.00170   0.03104
           X6          -0.01412   0.00125  -0.00208  -0.00104   0.00006
           Y6          -0.10617   0.00040   0.03302   0.01658  -0.00024
           Z6           0.00040  -0.05883  -0.00027  -0.00007   0.01041
                          X6        Y6        Z6
           X6           0.32985
           Y6           0.01612   0.07434
           Z6          -0.00139  -0.00033   0.03057
 ITU=  0
     Eigenvalues ---    0.03985   0.04418   0.09644   0.10105   0.13761
     Eigenvalues ---    0.17413   0.27804   0.29085   0.53523   0.70331
     Eigenvalues ---    0.97537   1.62356
 Angle between quadratic step and forces=  43.51 degrees.
 Linear search not attempted -- first point.
 B after Tr=     0.004464    0.003871   -0.001756
         Rot=    1.000000   -0.000011    0.000006   -0.000104 Ang=  -0.01 deg.
 Variable       Old X    -DE/DX   Delta X   Delta X   Delta X     New X
                                 (Linear)    (Quad)   (Total)
    X1       -0.62738   0.00280   0.00000   0.01056   0.01525  -0.61214
    Y1       -1.08599  -0.00956   0.00000   0.00608   0.00982  -1.07617
    Z1        0.00600  -0.00077   0.00000  -0.00380  -0.00559   0.00041
    X2        0.38673  -0.00836   0.00000  -0.02760  -0.02254   0.36419
    Y2       -2.90678   0.01002   0.00000   0.02880   0.03275  -2.87403
    Z2       -0.00198   0.00037   0.00000   0.00447   0.00265   0.00067
    X3       -2.68846   0.00559   0.00000   0.02692   0.03162  -2.65684
    Y3       -1.13445  -0.00190   0.00000  -0.01129  -0.00797  -1.14242
    Z3       -0.00459   0.00037   0.00000   0.00463   0.00282  -0.00178
    X4        0.62578   0.01372   0.00000   0.00791   0.01215   0.63792
    Y4        1.08431   0.01461   0.00000   0.00996   0.01396   1.09827
    Z4        0.00316  -0.00073   0.00000  -0.00347  -0.00519  -0.00203
    X5       -0.30261  -0.00046   0.00000  -0.01406  -0.01019  -0.31280
    Y5        2.93306  -0.00793   0.00000  -0.02351  -0.01970   2.91336
    Z5       -0.00880   0.00036   0.00000   0.00429   0.00259  -0.00620
    X6        2.71064  -0.01329   0.00000  -0.03049  -0.02628   2.68436
    Y6        1.21534  -0.00525   0.00000  -0.03328  -0.02885   1.18648
    Z6       -0.00662   0.00039   0.00000   0.00441   0.00272  -0.00390
         Item               Value     Threshold  Converged?
 Maximum Force            0.014614     0.000450     NO 
 RMS     Force            0.007360     0.000300     NO 
 Maximum Displacement     0.032745     0.001800     NO 
 RMS     Displacement     0.017348     0.001200     NO 
 Predicted change in Energy=-8.508580D-04
 GradGradGradGradGradGradGradGradGradGradGradGradGradGradGradGradGradGrad

 Unable to Open any file for archive entry.
 1\1\GINC-BHD0001\Force\RwB97XD\6-311G\C2H4\BWEIGHT\12-Jan-2023\0\\# WB
 97XD/6-311G SCF=XQC FORCE nosym pop=full guess=read\\MD Step 1000\\0,1
 \C,-0.33199648,-0.57468216,0.00317343\H,0.20464769,-1.53819978,-0.0010
 4939\H,-1.42267189,-0.60032584,-0.00242984\C,0.33114641,0.57379284,0.0
 0167242\H,-0.16013396,1.55211091,-0.00465438\H,1.43440688,0.64312849,-
 0.00350347\\Version=ES64L-G16RevC.01\HF=-78.5566021\RMSD=6.826e-09\RMS
 F=7.360e-03\Dipole=-0.0001363,0.0084686,-0.006902\Quadrupole=0.8329425
 ,0.8617728,-1.6947153,0.0430865,0.0003567,-0.0027091\PG=C01 [X(C2H4)]\
 \@
 The archive entry for this job was punched.


 MY GROUP MEETINGS AREN'T VERY STRUCTURED.
     -- PROF. M. S. GORDON, OCT. 5, 1984
 Job cpu time:       0 days  0 hours  0 minutes 55.5 seconds.
 Elapsed time:       0 days  0 hours  0 minutes  3.0 seconds.
 File lengths (MBytes):  RWF=    272 Int=      0 D2E=      0 Chk=     32 Scr=     32
 Normal termination of Gaussian 16 at Thu Jan 12 13:56:41 2023.
