 Entering Gaussian System, Link 0=g16
 Initial command:
 /software/gaussian/g16-c01/avx2/g16/l1.exe "/gpfs/fs2/scratch/bweight/software/many_molecule_many_mode_NAMD/src/NAMD/TEST_RESCALE/G16/GS_NEW/Gau-393.inp" -scrdir="/gpfs/fs2/scratch/bweight/software/many_molecule_many_mode_NAMD/src/NAMD/TEST_RESCALE/G16/GS_NEW/"
 Entering Link 1 = /software/gaussian/g16-c01/avx2/g16/l1.exe PID=       418.
  
 Copyright (c) 1988-2019, Gaussian, Inc.  All Rights Reserved.
  
 This is part of the Gaussian(R) 16 program.  It is based on
 the Gaussian(R) 09 system (copyright 2009, Gaussian, Inc.),
 the Gaussian(R) 03 system (copyright 2003, Gaussian, Inc.),
 the Gaussian(R) 98 system (copyright 1998, Gaussian, Inc.),
 the Gaussian(R) 94 system (copyright 1995, Gaussian, Inc.),
 the Gaussian 92(TM) system (copyright 1992, Gaussian, Inc.),
 the Gaussian 90(TM) system (copyright 1990, Gaussian, Inc.),
 the Gaussian 88(TM) system (copyright 1988, Gaussian, Inc.),
 the Gaussian 86(TM) system (copyright 1986, Carnegie Mellon
 University), and the Gaussian 82(TM) system (copyright 1983,
 Carnegie Mellon University). Gaussian is a federally registered
 trademark of Gaussian, Inc.
  
 This software contains proprietary and confidential information,
 including trade secrets, belonging to Gaussian, Inc.
  
 This software is provided under written license and may be
 used, copied, transmitted, or stored only in accord with that
 written license.
  
 The following legend is applicable only to US Government
 contracts under FAR:
  
                    RESTRICTED RIGHTS LEGEND
  
 Use, reproduction and disclosure by the US Government is
 subject to restrictions as set forth in subparagraphs (a)
 and (c) of the Commercial Computer Software - Restricted
 Rights clause in FAR 52.227-19.
  
 Gaussian, Inc.
 340 Quinnipiac St., Bldg. 40, Wallingford CT 06492
  
  
 ---------------------------------------------------------------
 Warning -- This program may not be used in any manner that
 competes with the business of Gaussian, Inc. or will provide
 assistance to any competitor of Gaussian, Inc.  The licensee
 of this program is prohibited from giving any competitor of
 Gaussian, Inc. access to this program.  By using this program,
 the user acknowledges that Gaussian, Inc. is engaged in the
 business of creating and licensing software in the field of
 computational chemistry and represents and warrants to the
 licensee that it is not a competitor of Gaussian, Inc. and that
 it will not use this program in any manner prohibited above.
 ---------------------------------------------------------------
  

 Cite this work as:
 Gaussian 16, Revision C.01,
 M. J. Frisch, G. W. Trucks, H. B. Schlegel, G. E. Scuseria, 
 M. A. Robb, J. R. Cheeseman, G. Scalmani, V. Barone, 
 G. A. Petersson, H. Nakatsuji, X. Li, M. Caricato, A. V. Marenich, 
 J. Bloino, B. G. Janesko, R. Gomperts, B. Mennucci, H. P. Hratchian, 
 J. V. Ortiz, A. F. Izmaylov, J. L. Sonnenberg, D. Williams-Young, 
 F. Ding, F. Lipparini, F. Egidi, J. Goings, B. Peng, A. Petrone, 
 T. Henderson, D. Ranasinghe, V. G. Zakrzewski, J. Gao, N. Rega, 
 G. Zheng, W. Liang, M. Hada, M. Ehara, K. Toyota, R. Fukuda, 
 J. Hasegawa, M. Ishida, T. Nakajima, Y. Honda, O. Kitao, H. Nakai, 
 T. Vreven, K. Throssell, J. A. Montgomery, Jr., J. E. Peralta, 
 F. Ogliaro, M. J. Bearpark, J. J. Heyd, E. N. Brothers, K. N. Kudin, 
 V. N. Staroverov, T. A. Keith, R. Kobayashi, J. Normand, 
 K. Raghavachari, A. P. Rendell, J. C. Burant, S. S. Iyengar, 
 J. Tomasi, M. Cossi, J. M. Millam, M. Klene, C. Adamo, R. Cammi, 
 J. W. Ochterski, R. L. Martin, K. Morokuma, O. Farkas, 
 J. B. Foresman, and D. J. Fox, Gaussian, Inc., Wallingford CT, 2019.
 
 ******************************************
 Gaussian 16:  ES64L-G16RevC.01  3-Jul-2019
                14-Jan-2023 
 ******************************************
 %oldchk=../GS_OLD/geometry.chk
 %chk=geometry.chk
 %nprocshared=24
 Will use up to   24 processors via shared memory.
 %mem=5GB
 Copying data from "../GS_OLD/geometry.chk" to current chk file "geometry.chk"
 IOpt=  2 FromEx=T IUOpen= 4 IOptOp= 5 NList=   0 IFRang= 0 IUIn= 4 IUOut= 2.
 -----------------------------------------------------------
 # WB97XD/6-311++G** SCF=XQC FORCE nosym pop=full guess=read
 -----------------------------------------------------------
 1/10=7,30=1,38=1/1,3;
 2/12=2,15=1,17=6,18=5,40=1/2;
 3/5=4,6=6,7=1111,11=2,25=1,30=1,71=1,74=-58,116=-2/1,2,3;
 4/5=1/1;
 5/5=2,8=3,13=1,38=6/2,8;
 6/7=3,28=1/1;
 7/29=1,30=1/1,2,3,16;
 1/10=7,30=1/3;
 99//99;
 ---------
 MD Step 2
 ---------
 Symbolic Z-matrix:
 Charge =  0 Multiplicity = 1
 C                    -0.33701  -0.58694   0.00073 
 H                     0.20204  -1.50966   0.0062 
 H                    -1.40222  -0.58138   0.00621 
 C                     0.33847   0.58839   0.00073 
 H                    -0.18962   1.52204   0.00621 
 H                     1.41452   0.59377   0.00622 
 

 GradGradGradGradGradGradGradGradGradGradGradGradGradGradGradGradGradGrad
 Berny optimization.
 Initialization pass.
 Trust Radius=3.00D-01 FncErr=1.00D-07 GrdErr=1.00D-07 EigMax=2.50D+02 EigMin=1.00D-04
 Number of steps in this run=      2 maximum allowed number of steps=      2.
 GradGradGradGradGradGradGradGradGradGradGradGradGradGradGradGradGradGrad

                          Input orientation:                          
 ---------------------------------------------------------------------
 Center     Atomic      Atomic             Coordinates (Angstroms)
 Number     Number       Type             X           Y           Z
 ---------------------------------------------------------------------
      1          6           0       -0.337012   -0.586936    0.000727
      2          1           0        0.202045   -1.509662    0.006203
      3          1           0       -1.402217   -0.581377    0.006211
      4          6           0        0.338473    0.588393    0.000725
      5          1           0       -0.189623    1.522036    0.006208
      6          1           0        1.414518    0.593774    0.006216
 ---------------------------------------------------------------------
                    Distance matrix (angstroms):
                    1          2          3          4          5
     1  C    0.000000
     2  H    1.068661   0.000000
     3  H    1.065233   1.853475   0.000000
     4  C    1.355610   2.102493   2.097235   0.000000
     5  H    2.114123   3.056893   2.427907   1.072663   0.000000
     6  H    2.112336   2.427866   3.052044   1.076072   1.853359
                    6
     6  H    0.000000
 Symmetry turned off by external request.
 Stoichiometry    C2H4
 Framework group  C1[X(C2H4)]
 Deg. of freedom    12
 Full point group                 C1      NOp   1
 Rotational constants (GHZ):         145.9734158          29.7857472          24.7382347
 Standard basis: 6-311++G(d,p) (5D, 7F)
    72 basis functions,   108 primitive gaussians,    74 cartesian basis functions
     8 alpha electrons        8 beta electrons
       nuclear repulsion energy        33.2977273949 Hartrees.
 NAtoms=    6 NActive=    6 NUniq=    6 SFac= 1.00D+00 NAtFMM=   60 NAOKFM=F Big=F
 Integral buffers will be    131072 words long.
 Raffenetti 2 integral format.
 Two-electron integral symmetry is turned off.
 Nuclear repulsion after empirical dispersion term =       33.2968796533 Hartrees.
 One-electron integrals computed using PRISM.
 NBasis=    72 RedAO= T EigKep=  1.58D-04  NBF=    72
 NBsUse=    72 1.00D-06 EigRej= -1.00D+00 NBFU=    72
 Initial guess from the checkpoint file:  "geometry.chk"
 B after Tr=     0.000544    0.000546    0.000550
         Rot=    1.000000   -0.000000    0.000000   -0.000001 Ang=  -0.00 deg.
 Keep R1 ints in memory in canonical form, NReq=28647586.
 Requested convergence on RMS density matrix=1.00D-08 within  32 cycles.
 Requested convergence on MAX density matrix=1.00D-06.
 Requested convergence on             energy=1.00D-06.
 No special actions if energy rises.
 SCF Done:  E(RwB97XD) =  -78.5788778338     A.U. after    9 cycles
            NFock=  9  Conv=0.22D-08     -V/T= 2.0049
 QCSCF skips out because SCF is already converged.

 **********************************************************************

            Population analysis using the SCF Density.

 **********************************************************************

 Alpha  occ. eigenvalues --  -10.28619 -10.28469  -0.86136  -0.67912  -0.56697
 Alpha  occ. eigenvalues --   -0.50130  -0.45016  -0.35507
 Alpha virt. eigenvalues --    0.05097   0.05913   0.06514   0.06627   0.08576
 Alpha virt. eigenvalues --    0.12538   0.13893   0.17230   0.17714   0.17920
 Alpha virt. eigenvalues --    0.19849   0.21435   0.22234   0.22623   0.24755
 Alpha virt. eigenvalues --    0.27607   0.42065   0.42713   0.51129   0.52891
 Alpha virt. eigenvalues --    0.60466   0.61502   0.62104   0.68108   0.73088
 Alpha virt. eigenvalues --    0.81207   0.83549   0.84344   0.86959   0.93565
 Alpha virt. eigenvalues --    1.07539   1.17759   1.18994   1.48148   1.48441
 Alpha virt. eigenvalues --    1.52412   1.68830   1.69379   1.69887   1.70564
 Alpha virt. eigenvalues --    1.84408   1.90798   2.04786   2.16139   2.19409
 Alpha virt. eigenvalues --    2.21794   2.26381   2.30145   2.49361   2.52545
 Alpha virt. eigenvalues --    2.66333   2.66976   2.77843   2.79054   2.82892
 Alpha virt. eigenvalues --    2.94550   2.99201   3.24139   3.49362   3.79051
 Alpha virt. eigenvalues --    3.94781   4.27014  23.92555  24.32650
     Molecular Orbital Coefficients:
                           1         2         3         4         5
                           O         O         O         O         O
     Eigenvalues --   -10.28619 -10.28469  -0.86136  -0.67912  -0.56697
   1 1   C  1S          0.14812   0.54369  -0.08720   0.06808  -0.00008
   2        2S          0.12193   0.44663  -0.13563   0.10726  -0.00014
   3        2PX         0.00037  -0.00027   0.02263   0.03725   0.13317
   4        2PY         0.00064  -0.00047   0.03992   0.06378  -0.07529
   5        2PZ        -0.00000  -0.00000   0.00021  -0.00037  -0.00001
   6        3S          0.00425   0.01737   0.34956  -0.28379   0.00047
   7        3PX        -0.00190   0.00103   0.03210   0.05399   0.18528
   8        3PY        -0.00326   0.00189   0.05630   0.09286  -0.10477
   9        3PZ         0.00001   0.00002   0.00024  -0.00046  -0.00001
  10        4S         -0.00173  -0.00555   0.19255  -0.21308   0.00033
  11        4PX         0.00035  -0.00049   0.00697   0.02626   0.10710
  12        4PY         0.00056  -0.00084   0.01218   0.04524  -0.06070
  13        4PZ        -0.00000  -0.00000   0.00011  -0.00025  -0.00000
  14        5S         -0.00014   0.00337  -0.00815   0.01122  -0.00035
  15        5PX        -0.00036   0.00066  -0.00089  -0.00068  -0.00028
  16        5PY        -0.00040   0.00106  -0.00220  -0.00165  -0.00003
  17        5PZ         0.00000  -0.00001  -0.00001  -0.00001   0.00000
  18        6D 0        0.00013  -0.00232  -0.01062   0.00616  -0.00000
  19        6D+1       -0.00000  -0.00001  -0.00001   0.00006   0.00014
  20        6D-1       -0.00001  -0.00001  -0.00002   0.00010  -0.00008
  21        6D+2        0.00089  -0.00046  -0.00427  -0.00533   0.00197
  22        6D-2       -0.00154   0.00081   0.00727   0.00905   0.00140
  23 2   H  1S         -0.00016   0.00022   0.05443  -0.08960   0.09942
  24        2S         -0.00162  -0.00300   0.06414  -0.11552   0.13922
  25        3S          0.00106   0.00215  -0.00314  -0.01340   0.02689
  26        4S         -0.00093  -0.00055   0.00640  -0.01060   0.01211
  27        5PX         0.00053   0.00099  -0.00400   0.01001  -0.00290
  28        5PY        -0.00090  -0.00155   0.01078  -0.00937   0.01360
  29        5PZ         0.00001   0.00001  -0.00004   0.00006  -0.00011
  30 3   H  1S         -0.00017   0.00021   0.05499  -0.09027  -0.10049
  31        2S         -0.00162  -0.00308   0.06469  -0.11615  -0.14030
  32        3S          0.00105   0.00221  -0.00309  -0.01338  -0.02708
  33        4S         -0.00109  -0.00051   0.00694  -0.01029  -0.01224
  34        5PX        -0.00106  -0.00188   0.01146  -0.01318  -0.01328
  35        5PY         0.00001   0.00008   0.00195   0.00397  -0.00417
  36        5PZ         0.00001   0.00001  -0.00004   0.00006   0.00011
  37 4   C  1S          0.54366  -0.14829  -0.08651  -0.06879  -0.00008
  38        2S          0.44673  -0.12160  -0.13458  -0.10840  -0.00014
  39        2PX         0.00005  -0.00046  -0.02327   0.03649   0.12735
  40        2PY         0.00009  -0.00079  -0.04021   0.06425  -0.07478
  41        2PZ        -0.00001   0.00000   0.00020   0.00036  -0.00001
  42        3S          0.01695  -0.00511   0.34734   0.28714   0.00046
  43        3PX        -0.00008   0.00215  -0.03273   0.05330   0.17821
  44        3PY        -0.00004   0.00372  -0.05661   0.09347  -0.10439
  45        3PZ         0.00003  -0.00000   0.00024   0.00045  -0.00001
  46        4S         -0.00577   0.00124   0.19191   0.21620   0.00022
  47        4PX         0.00030  -0.00051  -0.00739   0.02601   0.10353
  48        4PY         0.00054  -0.00089  -0.01264   0.04560  -0.06047
  49        4PZ        -0.00000   0.00000   0.00011   0.00025  -0.00000
  50        5S          0.00359  -0.00144  -0.01166  -0.01139   0.00033
  51        5PX        -0.00039   0.00048   0.00144  -0.00108  -0.00296
  52        5PY        -0.00094   0.00087   0.00322  -0.00132   0.00156
  53        5PZ        -0.00000   0.00001  -0.00001   0.00001  -0.00000
  54        6D 0       -0.00189   0.00128  -0.01055  -0.00623  -0.00002
  55        6D+1        0.00001  -0.00000   0.00001   0.00006   0.00013
  56        6D-1        0.00001  -0.00000   0.00002   0.00011  -0.00007
  57        6D+2       -0.00006   0.00100  -0.00443   0.00491  -0.00270
  58        6D-2        0.00002  -0.00172   0.00751  -0.00876  -0.00157
  59 5   H  1S          0.00013  -0.00024   0.05336   0.09084  -0.09569
  60        2S         -0.00335   0.00015   0.06306   0.11744  -0.13402
  61        3S          0.00234  -0.00021  -0.00298   0.01358  -0.02650
  62        4S         -0.00084  -0.00058   0.00604   0.01041  -0.01400
  63        5PX        -0.00111   0.00006   0.00377   0.00992  -0.00269
  64        5PY         0.00177  -0.00000  -0.01068  -0.00981   0.01312
  65        5PZ         0.00001  -0.00000  -0.00004  -0.00006   0.00010
  66 6   H  1S          0.00014  -0.00025   0.05307   0.08972   0.09504
  67        2S         -0.00323   0.00014   0.06286   0.11620   0.13332
  68        3S          0.00225  -0.00020  -0.00278   0.01362   0.02644
  69        4S         -0.00102  -0.00057   0.00660   0.01073   0.01414
  70        5PX         0.00204  -0.00003  -0.01115  -0.01332  -0.01264
  71        5PY        -0.00008   0.00004  -0.00202   0.00377  -0.00427
  72        5PZ         0.00001  -0.00000  -0.00004  -0.00006  -0.00010
                           6         7         8         9        10
                           O         O         O         V         V
     Eigenvalues --    -0.50130  -0.45016  -0.35507   0.05097   0.05913
   1 1   C  1S         -0.00668   0.00026   0.00016  -0.01570  -0.00040
   2        2S         -0.01067   0.00042   0.00026  -0.02689  -0.00067
   3        2PX         0.09497  -0.12359   0.00062  -0.01576  -0.00022
   4        2PY         0.16915   0.06900   0.00106  -0.02773  -0.00039
   5        2PZ        -0.00095   0.00002   0.17794   0.00018  -0.16184
   6        3S          0.03462  -0.00125  -0.00075   0.11280   0.00206
   7        3PX         0.13312  -0.17279   0.00091  -0.02238  -0.00038
   8        3PY         0.23714   0.09662   0.00155  -0.03912  -0.00067
   9        3PZ        -0.00144   0.00003   0.28092   0.00031  -0.25375
  10        4S         -0.02574  -0.00109  -0.00143  -0.03830   0.00352
  11        4PX         0.07395  -0.12958   0.00071  -0.01779  -0.00047
  12        4PY         0.13256   0.07288   0.00120  -0.03386  -0.00083
  13        4PZ        -0.00085   0.00002   0.24672   0.00010  -0.41981
  14        5S          0.01054  -0.00044   0.00038   2.02815  -0.01399
  15        5PX        -0.00145  -0.02535   0.00007  -0.15185  -0.00513
  16        5PY        -0.00114   0.01462   0.00011  -0.33378  -0.00914
  17        5PZ        -0.00002   0.00000   0.02857   0.00295  -0.76554
  18        6D 0        0.00042  -0.00002   0.00003   0.00118   0.00001
  19        6D+1       -0.00000  -0.00017   0.01121   0.00001   0.01444
  20        6D-1       -0.00000   0.00010   0.01954   0.00002   0.02511
  21        6D+2       -0.00903   0.02851  -0.00003  -0.00248  -0.00003
  22        6D-2        0.01601   0.01635   0.00005   0.00447   0.00005
  23 2   H  1S         -0.07679  -0.11500   0.00000   0.00711  -0.00056
  24        2S         -0.11256  -0.17474  -0.00007   0.00047  -0.00119
  25        3S         -0.03901  -0.06668  -0.00029  -0.00232  -0.00083
  26        4S         -0.00671   0.00425  -0.00020  -1.27230  -0.00891
  27        5PX         0.01239   0.00046   0.00004  -0.01086  -0.00000
  28        5PY        -0.00080  -0.00959   0.00012   0.00849  -0.00002
  29        5PZ         0.00000   0.00008   0.01514  -0.00006  -0.02302
  30 3   H  1S         -0.07352   0.11617  -0.00001   0.00728  -0.00056
  31        2S         -0.10746   0.17616  -0.00008   0.00013  -0.00119
  32        3S         -0.03781   0.06735  -0.00029   0.00811  -0.00080
  33        4S         -0.00716  -0.00416  -0.00020  -1.21301  -0.00849
  34        5PX        -0.00651   0.00863   0.00009   0.01268  -0.00001
  35        5PY         0.01053   0.00422   0.00009  -0.00517  -0.00001
  36        5PZ        -0.00000  -0.00008   0.01520  -0.00006  -0.02301
  37 4   C  1S         -0.00741   0.00004   0.00015  -0.01600   0.00040
  38        2S         -0.01182   0.00006   0.00025  -0.02738   0.00065
  39        2PX        -0.09615   0.12723  -0.00061   0.01622  -0.00022
  40        2PY        -0.16821  -0.07099  -0.00105   0.02785  -0.00039
  41        2PZ        -0.00095   0.00002   0.17785   0.00011   0.16185
  42        3S          0.03755  -0.00021  -0.00072   0.11455  -0.00200
  43        3PX        -0.13473   0.17915  -0.00090   0.02344  -0.00038
  44        3PY        -0.23523  -0.09978  -0.00153   0.03952  -0.00066
  45        3PZ        -0.00143   0.00003   0.28065   0.00021   0.25382
  46        4S         -0.02177   0.00065  -0.00138  -0.03224  -0.00356
  47        4PX        -0.07580   0.13434  -0.00070   0.01742  -0.00048
  48        4PY        -0.13261  -0.07514  -0.00120   0.03071  -0.00082
  49        4PZ        -0.00085   0.00002   0.24661  -0.00008   0.41960
  50        5S          0.00597  -0.00002   0.00035   1.99444   0.01517
  51        5PX         0.00191   0.02510  -0.00006   0.16736  -0.00509
  52        5PY         0.00186  -0.01459  -0.00010   0.36565  -0.00893
  53        5PZ        -0.00002   0.00000   0.02875   0.00281   0.76670
  54        6D 0        0.00041   0.00000   0.00003   0.00122  -0.00001
  55        6D+1        0.00000   0.00017  -0.01119  -0.00002   0.01449
  56        6D-1        0.00001  -0.00010  -0.01945  -0.00003   0.02522
  57        6D+2       -0.00862   0.02891  -0.00003  -0.00246   0.00002
  58        6D-2        0.01550   0.01641   0.00005   0.00442  -0.00004
  59 5   H  1S         -0.07598  -0.11747  -0.00000   0.00714   0.00057
  60        2S         -0.11180  -0.17876  -0.00008   0.00109   0.00120
  61        3S         -0.03799  -0.06878  -0.00029  -0.00483   0.00083
  62        4S         -0.00632   0.00340  -0.00020  -1.30412   0.00813
  63        5PX        -0.01231  -0.00013  -0.00004   0.01091   0.00000
  64        5PY         0.00114   0.00976  -0.00012  -0.00873  -0.00002
  65        5PZ         0.00000   0.00008   0.01501  -0.00007   0.02308
  66 6   H  1S         -0.07425   0.11945  -0.00001   0.00699   0.00056
  67        2S         -0.10941   0.18207  -0.00009  -0.00098   0.00120
  68        3S         -0.03773   0.07032  -0.00029   0.00578   0.00082
  69        4S         -0.00716  -0.00300  -0.00020  -1.22785   0.00788
  70        5PX         0.00692  -0.00876  -0.00008  -0.01289  -0.00002
  71        5PY        -0.01013  -0.00440  -0.00009   0.00508  -0.00001
  72        5PZ         0.00000  -0.00008   0.01494  -0.00007   0.02294
                          11        12        13        14        15
                           V         V         V         V         V
     Eigenvalues --     0.06514   0.06627   0.08576   0.12538   0.13893
   1 1   C  1S         -0.01624   0.00024   0.00002  -0.00004  -0.00758
   2        2S         -0.02700   0.00040   0.00003  -0.00007  -0.01102
   3        2PX        -0.00462   0.03209   0.02155  -0.00012   0.01230
   4        2PY        -0.00947  -0.01836  -0.01231  -0.00021   0.02096
   5        2PZ         0.00068  -0.00000   0.00000  -0.07159  -0.00006
   6        3S          0.09993  -0.00160  -0.00012   0.00022   0.01015
   7        3PX        -0.01626   0.06823   0.01481  -0.00004   0.00969
   8        3PY        -0.03178  -0.03883  -0.00877  -0.00008   0.01588
   9        3PZ         0.00108  -0.00000   0.00001  -0.06680  -0.00004
  10        4S          0.13105  -0.00034   0.00079   0.00108   0.32058
  11        4PX         0.07423  -0.01415   0.10777  -0.00068   0.02568
  12        4PY         0.13048   0.00522  -0.06083  -0.00112   0.04432
  13        4PZ         0.00143   0.00000   0.00000  -0.29528  -0.00001
  14        5S          5.17974  -0.15123   0.07027   0.00557   2.18546
  15        5PX        -0.04572   1.12249   6.05941   0.00191  -1.00147
  16        5PY        -0.06437  -0.65871  -3.48116   0.00376  -1.70546
  17        5PZ         0.01280  -0.00020  -0.00006   0.64845   0.00613
  18        6D 0        0.00631  -0.00013   0.00001   0.00003   0.00229
  19        6D+1       -0.00005  -0.00006  -0.00010  -0.00576   0.00001
  20        6D-1       -0.00008   0.00003   0.00006  -0.01008   0.00002
  21        6D+2        0.00166   0.00916   0.00429   0.00001  -0.01127
  22        6D-2       -0.00262   0.00536   0.00231  -0.00002   0.01932
  23 2   H  1S          0.00243   0.00294   0.00386  -0.00005  -0.02168
  24        2S          0.01407   0.00003   0.07530   0.00042   0.00180
  25        3S         -0.08236  -0.05633  -0.71736  -0.00213  -0.44668
  26        4S         -2.28649  -2.68377  -7.75919  -0.00231  -0.81978
  27        5PX        -0.00501  -0.00286  -0.00316   0.00002  -0.01169
  28        5PY         0.00994   0.00805   0.00833  -0.00001  -0.00577
  29        5PZ         0.00004  -0.00007  -0.00005   0.00350   0.00003
  30 3   H  1S          0.00234  -0.00315  -0.00400  -0.00005  -0.02176
  31        2S          0.01526  -0.00181  -0.07517   0.00043   0.00259
  32        3S         -0.08901   0.06187   0.71588  -0.00225  -0.45220
  33        4S         -2.25348   2.77754   7.76329  -0.00263  -0.83224
  34        5PX         0.01087  -0.00882  -0.00893  -0.00002   0.00091
  35        5PY         0.00055  -0.00165  -0.00132   0.00001  -0.01298
  36        5PZ         0.00004   0.00008   0.00005   0.00344   0.00003
  37 4   C  1S          0.01611  -0.00029   0.00016  -0.00004  -0.00759
  38        2S          0.02676  -0.00048   0.00028  -0.00007  -0.01104
  39        2PX        -0.00480   0.03223  -0.02258   0.00012  -0.01217
  40        2PY        -0.00960  -0.01823   0.01286   0.00021  -0.02135
  41        2PZ        -0.00068   0.00000  -0.00000  -0.07197  -0.00007
  42        3S         -0.09843   0.00174  -0.00142   0.00023   0.01105
  43        3PX        -0.01719   0.07020  -0.01964   0.00005  -0.00977
  44        3PY        -0.03216  -0.03957   0.01061   0.00009  -0.01716
  45        3PZ        -0.00108   0.00000  -0.00001  -0.06733  -0.00006
  46        4S         -0.13622   0.00240   0.00241   0.00110   0.30351
  47        4PX         0.07494  -0.02194  -0.10119   0.00064  -0.01894
  48        4PY         0.13040   0.01070   0.05971   0.00108  -0.03379
  49        4PZ        -0.00144   0.00000   0.00000  -0.29604  -0.00003
  50        5S         -5.14774   0.13120  -0.02952   0.00339   2.41314
  51        5PX        -0.01257   0.88801  -5.97785  -0.00166   0.95681
  52        5PY        -0.10755  -0.52854   3.49526  -0.00333   1.63142
  53        5PZ        -0.01276   0.00017   0.00007   0.64688   0.00591
  54        6D 0       -0.00635   0.00015  -0.00003   0.00002   0.00253
  55        6D+1       -0.00005  -0.00005   0.00009   0.00575  -0.00002
  56        6D-1       -0.00008   0.00003  -0.00005   0.00997  -0.00003
  57        6D+2       -0.00189  -0.00879   0.00415   0.00001  -0.01106
  58        6D-2        0.00266  -0.00512   0.00240  -0.00002   0.01885
  59 5   H  1S         -0.00187  -0.00322   0.00388  -0.00005  -0.02093
  60        2S         -0.01434   0.00243   0.07187   0.00040   0.00487
  61        3S          0.09297   0.01657  -0.69169  -0.00201  -0.45071
  62        4S          2.32328   2.41456  -7.73250  -0.00222  -0.79550
  63        5PX        -0.00488  -0.00263   0.00277  -0.00002   0.01148
  64        5PY         0.00995   0.00787  -0.00834   0.00001   0.00570
  65        5PZ        -0.00004   0.00007  -0.00005   0.00352   0.00003
  66 6   H  1S         -0.00185   0.00317  -0.00393  -0.00005  -0.02141
  67        2S         -0.01357  -0.00214  -0.07044   0.00040   0.00479
  68        3S          0.08539  -0.02139   0.68028  -0.00210  -0.45757
  69        4S          2.17690  -2.49078   7.69851  -0.00253  -0.78876
  70        5PX         0.01065  -0.00861   0.00876   0.00002  -0.00087
  71        5PY         0.00066  -0.00168   0.00162  -0.00001   0.01280
  72        5PZ        -0.00004  -0.00008   0.00005   0.00357   0.00003
                          16        17        18        19        20
                           V         V         V         V         V
     Eigenvalues --     0.17230   0.17714   0.17920   0.19849   0.21435
   1 1   C  1S          0.01434   0.01237   0.00050   0.00005  -0.02591
   2        2S          0.02361   0.02077   0.00085   0.00006  -0.04278
   3        2PX        -0.00441  -0.00225  -0.00028  -0.06229  -0.01365
   4        2PY        -0.00775  -0.00355  -0.00048   0.03611  -0.02300
   5        2PZ         0.00009   0.00714  -0.12586  -0.00001  -0.00021
   6        3S         -0.05776  -0.08081  -0.00352   0.00018   0.09239
   7        3PX         0.01323  -0.00684  -0.00028  -0.09827  -0.01821
   8        3PY         0.02178  -0.01131  -0.00048   0.05666  -0.02845
   9        3PZ        -0.00039   0.00838  -0.14525  -0.00000   0.00041
  10        4S         -0.28273   0.19278   0.01066  -0.00337   0.78688
  11        4PX        -0.05922   0.11568   0.00384  -0.25255  -0.04206
  12        4PY        -0.09989   0.20412   0.00685   0.14791  -0.07742
  13        4PZ         0.00171   0.03538  -0.63717  -0.00004  -0.00264
  14        5S          5.67184 -26.58715  -1.30160  -0.08730 -33.55994
  15        5PX        -0.12699  -5.49814  -0.28933   2.85420  -3.41472
  16        5PY        -0.20226  -9.55395  -0.50206  -1.65620  -6.15808
  17        5PZ         0.00897  -0.09399   2.09689  -0.00001  -0.00924
  18        6D 0        0.03554  -0.00638  -0.00021  -0.00011  -0.02211
  19        6D+1        0.00008  -0.00030   0.00539  -0.00035  -0.00008
  20        6D-1        0.00014  -0.00053   0.00930   0.00020  -0.00014
  21        6D+2       -0.00256  -0.01121  -0.00076   0.00795   0.00551
  22        6D-2        0.00441   0.01918   0.00131   0.00436  -0.00913
  23 2   H  1S         -0.03098  -0.01247  -0.00125  -0.01730   0.00956
  24        2S          0.05755  -0.00097   0.00065   0.11318  -0.15308
  25        3S         -1.00788  -0.12479  -0.01871  -0.58265   0.72024
  26        4S         -1.61655  -3.72424  -0.21759  -4.16533   1.72678
  27        5PX        -0.00417  -0.01153  -0.00068   0.00708   0.00095
  28        5PY         0.00699  -0.00879  -0.00042  -0.00112  -0.00115
  29        5PZ         0.00004   0.00034  -0.00518  -0.00012   0.00002
  30 3   H  1S         -0.03092  -0.01262  -0.00126   0.01771   0.00984
  31        2S          0.05812  -0.00209   0.00061  -0.11346  -0.15635
  32        3S         -1.01312  -0.12663  -0.01893   0.59499   0.75008
  33        4S         -1.64398  -3.73576  -0.21894   4.19546   1.89434
  34        5PX         0.00830  -0.00179  -0.00002   0.00434  -0.00161
  35        5PY        -0.00011  -0.01431  -0.00080  -0.00549   0.00039
  36        5PZ         0.00004   0.00034  -0.00525   0.00012   0.00002
  37 4   C  1S          0.01456  -0.01216  -0.00051   0.00006   0.02987
  38        2S          0.02395  -0.02045  -0.00086   0.00008   0.04891
  39        2PX         0.00435  -0.00127  -0.00023  -0.06289  -0.01819
  40        2PY         0.00761  -0.00168  -0.00038   0.03601  -0.03148
  41        2PZ         0.00021  -0.00714   0.12601   0.00000   0.00015
  42        3S         -0.05855   0.08056   0.00357   0.00005  -0.10200
  43        3PX        -0.01201  -0.00639  -0.00026  -0.09589  -0.02179
  44        3PY        -0.02124  -0.00985  -0.00037   0.05513  -0.03954
  45        3PZ        -0.00023  -0.00838   0.14547   0.00000  -0.00049
  46        4S         -0.27793  -0.19784  -0.01057  -0.00372  -0.97013
  47        4PX         0.05357   0.12236   0.00418  -0.26720  -0.08071
  48        4PY         0.09184   0.21354   0.00726   0.15288  -0.13299
  49        4PZ         0.00227  -0.03527   0.63730   0.00002   0.00217
  50        5S          4.18444  26.72951   1.30451   0.04761  33.71539
  51        5PX         0.40120  -5.51837  -0.29067   2.72429  -3.53685
  52        5PY         0.68133  -9.61939  -0.50680  -1.59437  -5.96108
  53        5PZ         0.00786   0.09423  -2.09686  -0.00008   0.00939
  54        6D 0        0.03508   0.00790   0.00027  -0.00004   0.02058
  55        6D+1       -0.00008  -0.00030   0.00535  -0.00034  -0.00008
  56        6D-1       -0.00013  -0.00053   0.00935   0.00020  -0.00014
  57        6D+2       -0.00203   0.01115   0.00075  -0.00797  -0.00398
  58        6D-2        0.00403  -0.01925  -0.00131  -0.00445   0.00782
  59 5   H  1S         -0.03135   0.01084   0.00119   0.01748  -0.00612
  60        2S          0.05581  -0.00140  -0.00084  -0.11064   0.17032
  61        3S         -1.00323   0.09226   0.01792   0.55906  -0.61820
  62        4S         -1.74691   3.70802   0.21882   4.02476  -1.99718
  63        5PX         0.00447  -0.01164  -0.00069   0.00724  -0.00035
  64        5PY        -0.00648  -0.00934  -0.00045  -0.00119  -0.00045
  65        5PZ         0.00005  -0.00033   0.00508   0.00012  -0.00002
  66 6   H  1S         -0.03138   0.01103   0.00120  -0.01716  -0.00542
  67        2S          0.05509   0.00063  -0.00073   0.11176   0.16794
  68        3S         -1.00425   0.08820   0.01765  -0.55672  -0.58470
  69        4S         -1.75119   3.66335   0.21626  -4.02514  -1.84967
  70        5PX        -0.00753  -0.00224  -0.00005   0.00470   0.00006
  71        5PY         0.00065  -0.01463  -0.00081  -0.00573  -0.00046
  72        5PZ         0.00005  -0.00033   0.00501  -0.00012  -0.00002
                          21        22        23        24        25
                           V         V         V         V         V
     Eigenvalues --     0.22234   0.22623   0.24755   0.27607   0.42065
   1 1   C  1S          0.03499  -0.00282   0.00014   0.03597   0.00089
   2        2S          0.05491  -0.00441   0.00017   0.05785   0.00140
   3        2PX         0.03433  -0.06194   0.08653   0.02322   0.12891
   4        2PY         0.07477   0.02800  -0.04815   0.03942  -0.07851
   5        2PZ        -0.00050   0.00004   0.00001  -0.00144   0.00000
   6        3S         -0.09537   0.00756   0.00072  -0.11683  -0.00139
   7        3PX         0.03260  -0.13790   0.06648  -0.00572   0.10893
   8        3PY         0.08620   0.07067  -0.03591  -0.00950  -0.06963
   9        3PZ        -0.00071   0.00006   0.00001  -0.00135   0.00001
  10        4S         -1.66315   0.14192  -0.02629  -1.38009  -0.10552
  11        4PX         0.29787  -0.03267   0.70255   0.30924   1.88193
  12        4PY         0.53545  -0.04011  -0.39398   0.52545  -1.17249
  13        4PZ        -0.00386   0.00032   0.00003  -0.01244  -0.00001
  14        5S          2.96684   0.12363   0.06697 -20.63737   0.30404
  15        5PX         0.85486  11.46013   1.30227  -2.02073  11.97969
  16        5PY        -0.73775  -6.52176  -0.76332  -3.50277  -6.76972
  17        5PZ         0.00143  -0.00010   0.00013  -0.01132  -0.00056
  18        6D 0       -0.01103   0.00110  -0.00003  -0.01854  -0.00015
  19        6D+1       -0.00002  -0.00029  -0.00061   0.00002  -0.00053
  20        6D-1       -0.00001   0.00017   0.00035   0.00006   0.00030
  21        6D+2        0.00508   0.01720   0.05191   0.01660   0.00969
  22        6D-2       -0.00782   0.01093   0.03005  -0.02726   0.00677
  23 2   H  1S          0.03055  -0.02752  -0.06131   0.06129  -0.02005
  24        2S          0.14674   0.11696  -0.10603   0.05140  -0.04706
  25        3S          1.10229  -1.60873  -1.93567   2.31613  -4.58660
  26        4S         -1.87507  -9.99964  -0.92173   0.46464  -8.30817
  27        5PX         0.01198  -0.00257  -0.00096   0.01232  -0.01149
  28        5PY        -0.00612  -0.00847   0.03028  -0.02005   0.02673
  29        5PZ        -0.00001  -0.00012  -0.00036  -0.00009  -0.00087
  30 3   H  1S          0.03196   0.02190   0.06075   0.06199   0.01865
  31        2S          0.12151  -0.13727   0.10871   0.05297   0.03629
  32        3S          1.30224   1.37860   1.95864   2.34870   4.60493
  33        4S         -0.18896  10.14440   0.87683   0.47410   8.41859
  34        5PX        -0.00914   0.00756  -0.02680  -0.02414  -0.02880
  35        5PY         0.00890   0.00496  -0.01392   0.00045  -0.00456
  36        5PZ        -0.00001   0.00012   0.00037  -0.00008   0.00086
  37 4   C  1S          0.03238  -0.00303   0.00122  -0.03542  -0.00125
  38        2S          0.05061  -0.00473   0.00192  -0.05703  -0.00197
  39        2PX        -0.03653   0.06067   0.09156   0.02524  -0.12760
  40        2PY        -0.06941  -0.02692  -0.05482   0.03945   0.07109
  41        2PZ        -0.00054   0.00005  -0.00003   0.00143  -0.00000
  42        3S         -0.08703   0.00763  -0.00325   0.11599   0.00209
  43        3PX        -0.03362   0.13397   0.07507  -0.00240  -0.11252
  44        3PY        -0.08015  -0.06927  -0.04423  -0.00856   0.06119
  45        3PZ        -0.00068   0.00006  -0.00003   0.00135  -0.00001
  46        4S         -1.55790   0.14948  -0.05733   1.34597   0.13392
  47        4PX        -0.32380   0.03345   0.72033   0.31733  -1.89223
  48        4PY        -0.51851   0.04860  -0.43997   0.51838   1.01202
  49        4PZ        -0.00423   0.00038  -0.00024   0.01229   0.00003
  50        5S         -0.80026  -0.18832  -0.06438  20.67757  -0.18076
  51        5PX        -0.55303 -11.33023   1.10170  -1.92830 -11.57858
  52        5PY         1.37611   6.59347  -0.63958  -3.47149   6.91325
  53        5PZ        -0.00027   0.00019  -0.00019   0.01141   0.00075
  54        6D 0       -0.01390   0.00110  -0.00054   0.01796   0.00036
  55        6D+1        0.00005   0.00028  -0.00060   0.00002   0.00042
  56        6D-1        0.00001  -0.00017   0.00035   0.00005  -0.00025
  57        6D+2        0.00817   0.01793  -0.05151  -0.01574   0.00898
  58        6D-2       -0.00769   0.01159  -0.03019   0.02596   0.00375
  59 5   H  1S          0.02941  -0.02852   0.06325  -0.06080  -0.01952
  60        2S          0.12487   0.11343   0.11527  -0.05107  -0.03934
  61        3S          1.12776  -1.62395   2.02276  -2.27644  -4.43846
  62        4S         -1.63471  -9.93195   0.63648  -0.46034  -8.19235
  63        5PX        -0.01195   0.00216  -0.00148   0.01154   0.00886
  64        5PY         0.00526   0.00782   0.03124  -0.01971  -0.02560
  65        5PZ        -0.00003  -0.00012   0.00036   0.00010  -0.00079
  66 6   H  1S          0.03697   0.02240  -0.06087  -0.06256   0.01925
  67        2S          0.10764  -0.13558  -0.10931  -0.05251   0.04490
  68        3S          1.47671   1.38094  -1.91216  -2.34538   4.36404
  69        4S          0.11539  10.00099  -0.63518  -0.52260   7.98945
  70        5PX         0.01051  -0.00766  -0.02670  -0.02353   0.02644
  71        5PY        -0.00801  -0.00433  -0.01459  -0.00010   0.00367
  72        5PZ         0.00001   0.00012  -0.00037   0.00008   0.00079
                          26        27        28        29        30
                           V         V         V         V         V
     Eigenvalues --     0.42713   0.51129   0.52891   0.60466   0.61502
   1 1   C  1S         -0.03453   0.00765   0.00017  -0.00066   0.03407
   2        2S         -0.05459   0.01894   0.00023  -0.00440   0.05913
   3        2PX         0.06511  -0.03034   0.01337   0.05666  -0.02585
   4        2PY         0.10542  -0.05171  -0.00713   0.09866  -0.04352
   5        2PZ        -0.00038   0.00000  -0.00001   0.00121   0.00145
   6        3S          0.05825  -0.15229  -0.00006   0.22929  -0.09201
   7        3PX         0.07983  -0.13506  -0.09758   0.24287   0.05112
   8        3PY         0.13098  -0.23396   0.05895   0.41985   0.08735
   9        3PZ        -0.00047  -0.00055  -0.00001   0.00442   0.00496
  10        4S          4.12016  -0.71548   0.02774  -0.30202  -1.79379
  11        4PX         1.66703   0.58850  -0.34770  -0.30793  -0.37642
  12        4PY         2.78554   0.99047   0.21206  -0.55934  -0.68684
  13        4PZ        -0.00295  -0.00255  -0.00003  -0.00821  -0.01972
  14        5S         -8.92323   2.70978  -0.03558   1.01233  15.62750
  15        5PX        -1.97821  -0.53934   1.75422   0.07881   1.15173
  16        5PY        -4.14965  -0.93182  -1.03176   0.03377   1.98149
  17        5PZ         0.01226   0.00485   0.00019   0.00602   0.03046
  18        6D 0        0.00805  -0.00567  -0.00046  -0.04480  -0.03168
  19        6D+1        0.00006   0.00003  -0.00029   0.00005   0.00020
  20        6D-1        0.00012   0.00004   0.00017   0.00008   0.00034
  21        6D+2        0.02616   0.01236  -0.01397  -0.00230  -0.03180
  22        6D-2       -0.04438  -0.02224  -0.00805   0.00332   0.05354
  23 2   H  1S          0.00901   0.03352   0.06997   0.06052   0.07976
  24        2S          0.15268   0.69872   0.94702   0.70215   1.18163
  25        3S         -0.11065  -0.80900  -1.86586  -1.10441  -2.21289
  26        4S         -2.05155  -0.59399  -1.77774  -0.31802  -0.98944
  27        5PX         0.02379   0.01645  -0.05327  -0.01145  -0.00603
  28        5PY         0.00374   0.03387   0.02040   0.00464   0.04263
  29        5PZ         0.00003  -0.00016  -0.00044  -0.00020  -0.00067
  30 3   H  1S          0.01064   0.03292  -0.06872   0.06035   0.08034
  31        2S          0.15862   0.70339  -0.93542   0.70791   1.19738
  32        3S          0.10869  -0.79349   1.84018  -1.06873  -2.20587
  33        4S         -1.63405  -0.59130   1.76569  -0.26822  -1.00562
  34        5PX        -0.00990   0.02194  -0.04472   0.01081   0.04174
  35        5PY         0.02197   0.03149   0.03622  -0.00771   0.01533
  36        5PZ         0.00007  -0.00016   0.00044  -0.00019  -0.00067
  37 4   C  1S          0.03506   0.00679   0.00002   0.00314  -0.03453
  38        2S          0.05560   0.01747  -0.00007   0.00214  -0.06019
  39        2PX         0.05844   0.02850   0.01124  -0.05499  -0.03138
  40        2PY         0.10904   0.04898  -0.00747  -0.09316  -0.05518
  41        2PZ         0.00037  -0.00003   0.00000   0.00125  -0.00056
  42        3S         -0.06382  -0.15263   0.00117   0.21366   0.12359
  43        3PX         0.07413   0.13372  -0.09712  -0.24592   0.01807
  44        3PY         0.13422   0.23193   0.05523  -0.42369   0.03133
  45        3PZ         0.00046  -0.00060   0.00001   0.00459  -0.00133
  46        4S         -4.11554  -0.51953  -0.01176  -0.34408   1.75261
  47        4PX         1.56228  -0.66010  -0.31411   0.32019  -0.33975
  48        4PY         2.83781  -1.12051   0.21422   0.55276  -0.59031
  49        4PZ         0.00292  -0.00243   0.00010  -0.00953   0.01412
  50        5S          8.99893   1.70941  -0.02525   2.68590 -15.42862
  51        5PX        -2.61091   0.70120   1.87920  -0.18183   1.04704
  52        5PY        -3.78776   1.18743  -1.13596  -0.18153   1.94290
  53        5PZ        -0.01206   0.00458  -0.00031   0.00934  -0.02776
  54        6D 0       -0.00899  -0.00671  -0.00029  -0.04972   0.02636
  55        6D+1        0.00008  -0.00003  -0.00027  -0.00005   0.00005
  56        6D-1        0.00011  -0.00004   0.00017  -0.00011   0.00009
  57        6D+2       -0.02502   0.01423   0.01426  -0.00368   0.02945
  58        6D-2        0.04346  -0.02456   0.00815   0.00734  -0.05138
  59 5   H  1S         -0.00671   0.03130  -0.07141   0.07060  -0.07208
  60        2S         -0.13863   0.67984  -0.96751   0.83666  -1.09327
  61        3S         -0.17830  -0.72329   1.96191  -1.37421   2.04595
  62        4S          1.60817  -0.63318   1.82892  -0.47423   0.92394
  63        5PX         0.02424  -0.01849  -0.05181   0.01203  -0.00318
  64        5PY         0.00211  -0.03277   0.02159  -0.00785   0.04191
  65        5PZ        -0.00007  -0.00014   0.00045  -0.00026   0.00062
  66 6   H  1S         -0.00703   0.03222   0.07044   0.07017  -0.07346
  67        2S         -0.14225   0.69779   0.94571   0.82909  -1.11258
  68        3S          0.09380  -0.75291  -1.93242  -1.33860   2.10280
  69        4S          2.04705  -0.63348  -1.76841  -0.37801   0.99558
  70        5PX        -0.00859  -0.02017  -0.04300  -0.01146   0.03786
  71        5PY         0.02190  -0.03217   0.03530   0.00608   0.01716
  72        5PZ        -0.00002  -0.00014  -0.00044  -0.00024   0.00062
                          31        32        33        34        35
                           V         V         V         V         V
     Eigenvalues --     0.62104   0.68108   0.73088   0.81207   0.83549
   1 1   C  1S         -0.00002   0.00030  -0.00025   0.01957  -0.00447
   2        2S         -0.00009   0.00052  -0.00049   0.04088  -0.00900
   3        2PX         0.00033  -0.00057   0.14301   0.10672  -0.18079
   4        2PY         0.00059  -0.00095  -0.08226   0.19873   0.09225
   5        2PZ        -0.15694  -0.19003  -0.00001  -0.00066   0.00004
   6        3S          0.00285  -0.00174   0.00506  -0.44286   0.07703
   7        3PX         0.00195  -0.00098   0.60412   0.35625  -0.62774
   8        3PY         0.00339  -0.00160  -0.34606   0.66678   0.33239
   9        3PZ        -0.66125  -0.69546  -0.00004  -0.00186   0.00007
  10        4S         -0.00583   0.00032  -0.01040   0.12750  -0.11549
  11        4PX        -0.00383  -0.00015  -1.34092  -1.07317   4.18861
  12        4PY        -0.00683  -0.00056   0.76858  -1.98870  -2.29678
  13        4PZ         0.96188   1.59908   0.00008   0.00840  -0.00049
  14        5S          0.05300   0.17479   0.09368   3.01415   0.00659
  15        5PX         0.00414   0.01520   0.57583   1.15784   5.44124
  16        5PY         0.00630   0.02614  -0.31104   1.55323  -3.22346
  17        5PZ        -0.38599  -1.04891   0.00001  -0.00346   0.00006
  18        6D 0       -0.00044  -0.00070  -0.00029  -0.00411   0.00070
  19        6D+1       -0.02755   0.00764   0.00029  -0.00008  -0.00135
  20        6D-1       -0.04804   0.01315  -0.00017  -0.00015   0.00085
  21        6D+2       -0.00017  -0.00023   0.06686   0.03545  -0.05849
  22        6D-2        0.00028   0.00039   0.03913  -0.06195  -0.02520
  23 2   H  1S          0.00088   0.00082  -0.03711   0.03089   0.05940
  24        2S          0.00931   0.00743  -0.12635   0.05172  -0.31827
  25        3S         -0.01893  -0.02206   1.36070  -1.25795  -4.09966
  26        4S         -0.00381  -0.00649  -1.22982   1.15452  -3.17775
  27        5PX        -0.00014  -0.00018  -0.03043   0.06097   0.00938
  28        5PY         0.00011  -0.00028   0.01148  -0.02327  -0.07374
  29        5PZ         0.00188  -0.00665   0.00014   0.00046  -0.00283
  30 3   H  1S          0.00089   0.00082   0.03756   0.02567  -0.06438
  31        2S          0.00937   0.00745   0.13758   0.00599   0.31752
  32        3S         -0.01868  -0.02184  -1.38339  -1.02525   4.25027
  33        4S         -0.00346  -0.00663   1.22518   1.40340   3.03074
  34        5PX         0.00017  -0.00014  -0.02415  -0.04907   0.08203
  35        5PY        -0.00008  -0.00030   0.02033   0.04401   0.02352
  36        5PZ         0.00172  -0.00716  -0.00015   0.00049   0.00269
  37 4   C  1S         -0.00019  -0.00030  -0.00030  -0.02355  -0.00344
  38        2S         -0.00037  -0.00054  -0.00057  -0.04891  -0.00690
  39        2PX        -0.00049  -0.00057   0.15396   0.12009   0.16644
  40        2PY        -0.00083  -0.00099  -0.08862   0.19636  -0.09884
  41        2PZ        -0.15753   0.18966   0.00001   0.00067  -0.00001
  42        3S          0.00334   0.00195   0.00497   0.51049   0.05667
  43        3PX        -0.00180  -0.00104   0.63901   0.39813   0.57073
  44        3PY        -0.00309  -0.00180  -0.36912   0.64974  -0.34958
  45        3PZ        -0.66320   0.69382   0.00001   0.00184  -0.00007
  46        4S          0.00375  -0.00075  -0.00758  -0.26834  -0.13652
  47        4PX         0.00201  -0.00017  -1.43362  -1.19798  -3.97091
  48        4PY         0.00324  -0.00039   0.82105  -1.96653   2.36314
  49        4PZ         0.96601  -1.59597  -0.00007  -0.00854   0.00016
  50        5S         -0.02240  -0.17361  -0.05767  -2.91448   0.26004
  51        5PX         0.00121   0.01433   0.48972   0.77496  -5.36723
  52        5PY         0.00374   0.02616  -0.25518   1.79341   3.08714
  53        5PZ        -0.38923   1.04787   0.00005   0.00355   0.00027
  54        6D 0       -0.00030   0.00067  -0.00013   0.00469   0.00046
  55        6D+1        0.02766   0.00756   0.00027  -0.00011   0.00101
  56        6D-1        0.04799   0.01319  -0.00015  -0.00018  -0.00064
  57        6D+2       -0.00000   0.00023  -0.06826  -0.03734  -0.05009
  58        6D-2        0.00001  -0.00039  -0.03905   0.06511  -0.02540
  59 5   H  1S          0.00053  -0.00079   0.04085  -0.02813   0.05857
  60        2S          0.00394  -0.00690   0.16090  -0.00110  -0.31563
  61        3S         -0.00897   0.02116  -1.48813   1.07389  -3.99013
  62        4S          0.00037   0.00588   1.19782  -1.44654  -3.04338
  63        5PX         0.00012  -0.00017  -0.02850   0.06650  -0.01175
  64        5PY         0.00010  -0.00028   0.01400  -0.02609   0.07300
  65        5PZ         0.00186   0.00587  -0.00014  -0.00054  -0.00255
  66 6   H  1S          0.00052  -0.00080  -0.04134  -0.03278  -0.06037
  67        2S          0.00373  -0.00711  -0.15338  -0.03835   0.33298
  68        3S         -0.00850   0.02160   1.49256   1.27756   3.93947
  69        4S          0.00154   0.00667  -1.21600  -1.20006   2.96637
  70        5PX         0.00005  -0.00016  -0.02778  -0.05712  -0.07845
  71        5PY         0.00015  -0.00030   0.01779   0.04218  -0.02628
  72        5PZ         0.00209   0.00595   0.00013  -0.00050   0.00247
                          36        37        38        39        40
                           V         V         V         V         V
     Eigenvalues --     0.84344   0.86959   0.93565   1.07539   1.17759
   1 1   C  1S          0.08040   0.00186   0.08481  -0.00001   0.00002
   2        2S          0.16162   0.00359   0.16508  -0.00002   0.00001
   3        2PX         0.03665  -0.07059  -0.07375  -0.00069   0.00001
   4        2PY         0.07959   0.03655  -0.13086   0.00041   0.00013
   5        2PZ        -0.00048   0.00002   0.00010   0.00009   0.04565
   6        3S         -1.35587  -0.02856  -1.44793   0.00017   0.00043
   7        3PX         0.03648  -0.24864  -0.10492  -0.00165  -0.00060
   8        3PY         0.12150   0.12313  -0.18650   0.00098  -0.00030
   9        3PZ        -0.00017   0.00012   0.00216   0.00110   0.10629
  10        4S          2.84337   0.10203   7.57868  -0.00079  -0.00887
  11        4PX        -0.07263  -3.15887   1.50700   0.00595   0.00889
  12        4PY        -0.74057   1.87922   2.59003  -0.00371   0.00195
  13        4PZ         0.00400  -0.00006   0.00024  -0.00107  -0.13122
  14        5S         -1.85629  -0.15240 -12.71485  -0.00025   0.00008
  15        5PX         0.40024   4.91516  -1.85111   0.01764   0.00453
  16        5PY         0.17430  -2.89386  -3.06547  -0.01012  -0.00399
  17        5PZ        -0.00237  -0.00004   0.00201   0.00028   0.01307
  18        6D 0       -0.01746  -0.00094  -0.14158  -0.00001   0.00408
  19        6D+1       -0.00047   0.00283  -0.00032   0.37558  -0.22786
  20        6D-1       -0.00052  -0.00170  -0.00053  -0.21611  -0.42810
  21        6D+2        0.04887   0.05510  -0.06393   0.00283  -0.00111
  22        6D-2       -0.09162   0.03165   0.11084   0.00162   0.00221
  23 2   H  1S          0.03629   0.05743   0.02725   0.00013   0.00022
  24        2S         -0.16778   1.83990  -0.43213   0.00172   0.00109
  25        3S         -0.95926  -0.84828  -0.00652  -0.01482  -0.00029
  26        4S          0.81697  -3.80911  -0.02428  -0.01636  -0.00357
  27        5PX         0.08438  -0.07012   0.02838   0.00178  -0.00244
  28        5PY        -0.09084   0.02923  -0.11287   0.00228  -0.00035
  29        5PZ         0.00066   0.00365   0.00095   0.25285   0.22248
  30 3   H  1S          0.03237  -0.05633   0.02855  -0.00012   0.00031
  31        2S         -0.06457  -1.85773  -0.40728  -0.00165   0.00400
  32        3S         -0.56953   0.85750  -0.05254   0.01507   0.00733
  33        4S          1.06224   3.80969  -0.12269   0.01652   0.00290
  34        5PX        -0.11153  -0.06597  -0.11260  -0.00108   0.00079
  35        5PY         0.02881   0.04470  -0.03397  -0.00269  -0.00295
  36        5PZ         0.00108  -0.00358   0.00099  -0.25284   0.19048
  37 4   C  1S          0.07920   0.00128  -0.08447   0.00001   0.00003
  38        2S          0.15938   0.00277  -0.16480   0.00001   0.00003
  39        2PX        -0.03049   0.06272  -0.07624  -0.00054  -0.00000
  40        2PY        -0.07093  -0.04323  -0.13043   0.00033  -0.00011
  41        2PZ        -0.00043  -0.00002  -0.00009  -0.00008   0.04540
  42        3S         -1.33890  -0.02595   1.44926  -0.00013   0.00019
  43        3PX        -0.01711   0.20087  -0.10812  -0.00092   0.00061
  44        3PY        -0.09162  -0.13476  -0.18440   0.00054   0.00029
  45        3PZ        -0.00004  -0.00008  -0.00211   0.00041   0.10909
  46        4S          2.86864  -0.01661  -7.57023   0.00071  -0.00730
  47        4PX         0.00516   3.18508   1.46668  -0.00381  -0.00915
  48        4PY         0.63113  -1.78346   2.60133   0.00195  -0.00272
  49        4PZ         0.00350   0.00011  -0.00026  -0.00009  -0.14210
  50        5S         -2.22360   0.12902  12.72763   0.00011  -0.00199
  51        5PX        -0.31819  -4.89127  -1.71773   0.00458  -0.00406
  52        5PY        -0.03100   2.78859  -3.13956  -0.00262   0.00446
  53        5PZ        -0.00211   0.00002  -0.00196  -0.00005   0.01670
  54        6D 0       -0.01605   0.00166   0.14001   0.00001   0.00417
  55        6D+1        0.00045  -0.00263  -0.00021   0.37452   0.22918
  56        6D-1        0.00054   0.00155  -0.00052  -0.21546   0.42946
  57        6D+2        0.04289   0.05722   0.06709  -0.00284  -0.00117
  58        6D-2       -0.08631   0.02901  -0.11436  -0.00163   0.00234
  59 5   H  1S          0.03564   0.05614  -0.02806  -0.00014   0.00020
  60        2S         -0.17187   1.80364   0.40882  -0.00371   0.00116
  61        3S         -0.89938  -0.83500   0.02924   0.00688  -0.00007
  62        4S          0.73819  -3.72878   0.12284   0.00757  -0.00351
  63        5PX        -0.08035   0.06615   0.02715   0.00153   0.00248
  64        5PY         0.09111  -0.02894  -0.11018   0.00215   0.00025
  65        5PZ         0.00064   0.00350  -0.00098  -0.24868   0.22756
  66 6   H  1S          0.03107  -0.05328  -0.02684   0.00014   0.00029
  67        2S         -0.07628  -1.78090   0.43760   0.00362   0.00399
  68        3S         -0.48193   0.77288  -0.00002  -0.00704   0.00712
  69        4S          0.96769   3.75219   0.02312  -0.00763   0.00266
  70        5PX         0.10784   0.06147  -0.10923  -0.00111  -0.00086
  71        5PY        -0.02584  -0.04587  -0.03095  -0.00242   0.00295
  72        5PZ         0.00104  -0.00346  -0.00088   0.25038   0.19453
                          41        42        43        44        45
                           V         V         V         V         V
     Eigenvalues --     1.18994   1.48148   1.48441   1.52412   1.68830
   1 1   C  1S         -0.00000  -0.00218   0.00054   0.00028  -0.02685
   2        2S         -0.00001  -0.00399   0.00108   0.00063  -0.06427
   3        2PX         0.00096  -0.00651   0.04626   0.06158  -0.00292
   4        2PY        -0.00056  -0.02841  -0.02168  -0.03583  -0.00247
   5        2PZ         0.00211   0.00089  -0.00013  -0.00001  -0.00858
   6        3S          0.00009  -0.01063  -0.00257  -0.00343   0.62972
   7        3PX         0.00600   0.01598  -0.02208   0.05995   0.17247
   8        3PY        -0.00361   0.03560   0.00521  -0.03429   0.34205
   9        3PZ         0.00392   0.00164  -0.00023  -0.00004  -0.00605
  10        4S         -0.00108   0.99682  -0.14122  -0.04458   0.11315
  11        4PX        -0.10601  -0.11169   1.78110   0.45119  -0.01975
  12        4PY         0.06154  -0.77397  -0.88991  -0.26575  -0.10280
  13        4PZ        -0.00530   0.00272  -0.00046   0.00003  -0.05568
  14        5S         -0.00044  -0.93669   0.13079   0.05882   0.63148
  15        5PX        -0.09904   0.07301  -0.57203  -0.67148   0.02052
  16        5PY         0.05700   0.35730   0.26364   0.39766  -0.03116
  17        5PZ         0.00033  -0.00166   0.00025  -0.00003   0.02417
  18        6D 0        0.00026  -0.49847   0.07268   0.00780   0.64783
  19        6D+1       -0.30645  -0.00289   0.00579   0.00301  -0.00716
  20        6D-1        0.15010  -0.00683  -0.00207  -0.00156  -0.01129
  21        6D+2       -0.00312   0.14294  -0.27622  -0.45500   0.10568
  22        6D-2       -0.00159  -0.34460  -0.09160  -0.25784  -0.13485
  23 2   H  1S          0.00083   0.03901   0.00848   0.07794  -0.03215
  24        2S          0.02617  -0.88583  -0.71130  -0.82278   0.41766
  25        3S          0.07092   0.17081  -0.33620   0.58711  -0.35038
  26        4S          0.06303   0.34641   0.52965   0.73300  -0.32417
  27        5PX        -0.00514   0.06213  -0.47332  -0.18177   0.04423
  28        5PY        -0.00458   0.11720  -0.19799   0.01345  -0.00186
  29        5PZ        -0.32702   0.00137   0.00639   0.00187   0.04101
  30 3   H  1S         -0.00080   0.03228  -0.01942  -0.07957  -0.00979
  31        2S         -0.02572  -0.62624   0.94265   0.85074   0.35718
  32        3S         -0.07064   0.23175   0.27894  -0.59419  -0.23259
  33        4S         -0.06330   0.14525  -0.60671  -0.73673  -0.28834
  34        5PX         0.00147   0.04374  -0.08145  -0.10012  -0.03701
  35        5PY         0.00639   0.26438   0.44913   0.14914   0.11393
  36        5PZ         0.34634  -0.00052  -0.00653  -0.00195   0.03973
  37 4   C  1S          0.00000  -0.00210   0.00024   0.00008  -0.01154
  38        2S          0.00000  -0.00375   0.00047   0.00021  -0.03284
  39        2PX        -0.00087   0.01054  -0.03259   0.06725   0.06472
  40        2PY         0.00051   0.02625   0.01357  -0.04064   0.11513
  41        2PZ         0.00216   0.00088  -0.00013  -0.00002   0.00627
  42        3S         -0.00001  -0.00977   0.00219  -0.00222   0.42939
  43        3PX        -0.00599  -0.02380   0.03340   0.03365  -0.20575
  44        3PY         0.00355  -0.04359  -0.00807  -0.01960  -0.31887
  45        3PZ         0.00618   0.00158  -0.00024  -0.00002   0.00159
  46        4S         -0.00099   0.87504  -0.13428   0.00572  -0.67309
  47        4PX         0.10360   0.19382  -1.61910   0.74782   0.66704
  48        4PY        -0.06115   0.82601   0.80267  -0.47241   1.12058
  49        4PZ        -0.00827   0.00290  -0.00039  -0.00016   0.04991
  50        5S         -0.00063  -0.72826   0.12356  -0.01293  -0.53828
  51        5PX         0.09628  -0.14811   0.44144  -0.72398  -0.26422
  52        5PY        -0.05621  -0.39830  -0.18423   0.44906  -0.50282
  53        5PZ         0.00128  -0.00172   0.00027   0.00012  -0.02246
  54        6D 0        0.00028  -0.50663   0.07636   0.00833   0.32801
  55        6D+1        0.31175   0.00307  -0.00498   0.00367  -0.01188
  56        6D-1       -0.15240   0.00666   0.00160  -0.00223  -0.01949
  57        6D+2       -0.00293   0.17080  -0.18361   0.48905   0.16353
  58        6D-2       -0.00151  -0.33501  -0.03868   0.29158  -0.33894
  59 5   H  1S          0.00082   0.03618  -0.00192  -0.08215   0.05499
  60        2S          0.02588  -0.83535  -0.52656   0.98108  -0.18694
  61        3S          0.06860   0.13254  -0.41230  -0.53067   0.11753
  62        4S          0.06097   0.31967   0.37934  -0.79913   0.35241
  63        5PX         0.00521  -0.07633   0.42732  -0.27279  -0.31934
  64        5PY         0.00464  -0.11660   0.19197  -0.00854  -0.27875
  65        5PZ        -0.32983   0.00116   0.00571  -0.00292  -0.02811
  66 6   H  1S         -0.00078   0.03670  -0.01019   0.08038   0.03388
  67        2S         -0.02535  -0.67052   0.75237  -0.94577  -0.11729
  68        3S         -0.06693   0.24887   0.34315   0.52172   0.02194
  69        4S         -0.06015   0.19945  -0.45569   0.77242   0.31900
  70        5PX        -0.00149  -0.05432   0.06533  -0.12623  -0.09546
  71        5PY        -0.00653  -0.25162  -0.40755   0.25216  -0.34658
  72        5PZ         0.35147  -0.00043  -0.00582   0.00298  -0.02691
                          46        47        48        49        50
                           V         V         V         V         V
     Eigenvalues --     1.69379   1.69887   1.70564   1.84408   1.90798
   1 1   C  1S          0.00637  -0.00297   0.00339   0.00021   0.00001
   2        2S          0.00860  -0.00587   0.00655   0.00062   0.00001
   3        2PX        -0.07848   0.02924  -0.01891   0.00070  -0.00052
   4        2PY        -0.14205   0.01334  -0.03154   0.00121   0.00026
   5        2PZ         0.02206  -0.00791  -0.11132  -0.12488  -0.00325
   6        3S          0.04630   0.03575  -0.03157  -0.00735  -0.00006
   7        3PX         0.13288   0.28059  -0.00582  -0.00415  -0.00452
   8        3PY         0.12661  -0.16032   0.01194  -0.00742   0.00237
   9        3PZ         0.01113  -0.00432  -0.06146  -0.11990  -0.00355
  10        4S         -0.80715   0.12389  -0.23440   0.00210  -0.00087
  11        4PX        -0.78176  -0.13780  -0.16048   0.00341   0.00468
  12        4PY        -1.24523   0.33215  -0.29196   0.00642  -0.00313
  13        4PZ         0.15725  -0.05411  -0.73666  -0.22639  -0.00692
  14        5S         -1.49945   0.34038  -0.36793   0.00538   0.00107
  15        5PX         0.24972  -0.43195   0.08546  -0.00102   0.00114
  16        5PY         0.58437   0.14381   0.11957  -0.00206  -0.00027
  17        5PZ        -0.06752   0.02245   0.29029   0.05137   0.00229
  18        6D 0       -0.09911   0.06241  -0.06600  -0.01277  -0.00019
  19        6D+1        0.03057  -0.00429  -0.13498   0.20517   0.54851
  20        6D-1        0.04999  -0.01981  -0.22820   0.37655  -0.30243
  21        6D+2        0.11762  -0.36420   0.04424  -0.00293   0.00503
  22        6D-2       -0.33008  -0.16043  -0.04932   0.00498   0.00299
  23 2   H  1S          0.10937   0.14723   0.01571  -0.00076  -0.00234
  24        2S         -0.60096  -0.43316  -0.11866  -0.00081   0.00337
  25        3S          0.48967   0.70162   0.07848   0.00078  -0.00618
  26        4S          0.69470   0.17414   0.15619   0.00013   0.00075
  27        5PX         0.36362   0.43332   0.04155  -0.00070  -0.00561
  28        5PY         0.35443   0.10845   0.06899   0.00142  -0.00365
  29        5PZ        -0.10213   0.03026   0.50639   0.55268  -0.50399
  30 3   H  1S          0.05674  -0.17884   0.02669  -0.00085   0.00232
  31        2S         -0.43112   0.66382  -0.15806  -0.00084  -0.00332
  32        3S          0.22518  -0.87154   0.12878   0.00059   0.00616
  33        4S          0.59918  -0.42771   0.17745   0.00048  -0.00056
  34        5PX         0.15575   0.07554   0.03194   0.00162   0.00046
  35        5PY         0.32550  -0.54964   0.10109  -0.00019   0.00689
  36        5PZ        -0.09905   0.04173   0.50034   0.53511   0.53284
  37 4   C  1S         -0.02559   0.00350  -0.00482   0.00021  -0.00000
  38        2S         -0.05721   0.00745  -0.01019   0.00063   0.00000
  39        2PX        -0.04345   0.02751  -0.01608  -0.00082  -0.00056
  40        2PY        -0.08202   0.01263  -0.02698  -0.00146   0.00022
  41        2PZ        -0.02381   0.00812   0.11382  -0.12260  -0.00176
  42        3S          0.47874  -0.05335   0.07028  -0.00781  -0.00009
  43        3PX        -0.04434   0.26945  -0.01621   0.00420  -0.00425
  44        3PY        -0.18716  -0.15463  -0.00891   0.00736   0.00260
  45        3PZ        -0.01248   0.00405   0.05813  -0.11282  -0.00330
  46        4S          0.53968  -0.11451   0.21573   0.00885   0.00091
  47        4PX        -0.45352  -0.24772  -0.13093  -0.00541   0.00551
  48        4PY        -0.65430   0.38748  -0.25609  -0.00945  -0.00401
  49        4PZ        -0.16057   0.05435   0.73868  -0.22386  -0.00056
  50        5S          1.52963  -0.32147   0.36678  -0.00988  -0.00120
  51        5PX         0.13075  -0.43449   0.07989   0.00287   0.00064
  52        5PY         0.35878   0.15388   0.10430   0.00518   0.00015
  53        5PZ         0.06838  -0.02243  -0.29052   0.04893  -0.00049
  54        6D 0        0.56350  -0.06867   0.09701  -0.01357  -0.00025
  55        6D+1        0.02684  -0.00393  -0.12887  -0.21626   0.55957
  56        6D-1        0.04387  -0.01905  -0.21963  -0.35332  -0.32821
  57        6D+2        0.01913   0.36100  -0.03389  -0.00260  -0.00516
  58        6D-2        0.09573   0.16529   0.03245   0.00469  -0.00287
  59 5   H  1S         -0.09328  -0.15088  -0.01362  -0.00040   0.00228
  60        2S          0.69380   0.40322   0.12469  -0.00245  -0.00293
  61        3S         -0.58558  -0.75401  -0.07903   0.00246   0.00639
  62        4S         -0.67208  -0.15859  -0.15493   0.00012  -0.00126
  63        5PX         0.18798   0.43866   0.02936   0.00149  -0.00556
  64        5PY         0.21658   0.11351   0.05881  -0.00090  -0.00370
  65        5PZ         0.10944  -0.03038  -0.50994   0.52186   0.53585
  66 6   H  1S         -0.03958   0.17797  -0.02467  -0.00037  -0.00226
  67        2S          0.52485  -0.61518   0.15794  -0.00242   0.00270
  68        3S         -0.31952   0.90451  -0.13637   0.00246  -0.00609
  69        4S         -0.58841   0.40087  -0.17512   0.00029   0.00110
  70        5PX         0.13107   0.06813   0.03136  -0.00162   0.00045
  71        5PY         0.10126  -0.55284   0.08598   0.00062   0.00693
  72        5PZ         0.10632  -0.04249  -0.50400   0.53801  -0.52491
                          51        52        53        54        55
                           V         V         V         V         V
     Eigenvalues --     2.04786   2.16139   2.19409   2.21794   2.26381
   1 1   C  1S          0.00227  -0.00051   0.00021   0.00844   0.00001
   2        2S          0.00569  -0.00119  -0.00053  -0.00116   0.00001
   3        2PX        -0.13993   0.00703   0.23532  -0.02285   0.01152
   4        2PY        -0.24449   0.01173  -0.14040  -0.01495  -0.00674
   5        2PZ         0.00381   0.11561  -0.00028  -0.00280   0.00171
   6        3S          0.15838   0.00095   0.01527   0.20163   0.00013
   7        3PX        -0.00865   0.00308  -0.25673   0.08898  -0.01625
   8        3PY        -0.02869   0.00622   0.13966   0.14592   0.00794
   9        3PZ        -0.00052  -0.01378   0.00018   0.00088  -0.00168
  10        4S         -4.48095   0.16683  -0.03953  -0.66192  -0.00000
  11        4PX        -1.27340   0.05018   0.00682   0.02465   0.00708
  12        4PY        -2.24637   0.08843  -0.01765   0.03692  -0.00440
  13        4PZ         0.00781   0.16311  -0.00017  -0.00130   0.00084
  14        5S          9.60907  -0.33200   0.01060  -0.40025  -0.00247
  15        5PX         1.19456  -0.04023   4.23014  -0.06724   0.11886
  16        5PY         2.11556  -0.08344  -2.41749   0.28686  -0.06877
  17        5PZ         0.00095  -0.10272  -0.00009  -0.00156  -0.00080
  18        6D 0        0.59323  -0.02671   0.00857   0.17046   0.00004
  19        6D+1        0.01705   0.48089  -0.02971   0.00385   0.74908
  20        6D-1        0.03020   0.86474   0.01550   0.00341  -0.41496
  21        6D+2       -0.05279  -0.00251   0.67033   0.28057   0.02869
  22        6D-2        0.08287   0.00610   0.34406  -0.54396   0.01563
  23 2   H  1S         -0.29037   0.00867  -0.39353   0.39761  -0.01598
  24        2S          0.94406  -0.02435   1.27994  -0.63329   0.04632
  25        3S         -1.10167   0.03173  -2.04449   0.73864  -0.06845
  26        4S          0.16175  -0.01509  -2.83208   0.18120  -0.07453
  27        5PX         0.38403  -0.01396  -0.20523  -0.46383  -0.00856
  28        5PY         0.18617  -0.00498  -0.17633  -0.20742  -0.00671
  29        5PZ         0.00760   0.30440   0.01866   0.00095  -0.50437
  30 3   H  1S         -0.28921   0.00949   0.42503   0.36425   0.01625
  31        2S          0.96854  -0.02809  -1.35176  -0.53566  -0.04818
  32        3S         -1.10292   0.03663   2.10221   0.57370   0.06944
  33        4S          0.13201  -0.00689   2.85632  -0.05523   0.07551
  34        5PX        -0.02152   0.00247   0.03700   0.03791   0.00063
  35        5PY         0.42691  -0.01417   0.22216  -0.52893   0.01069
  36        5PZ         0.00698   0.28532  -0.01954   0.00290   0.51674
  37 4   C  1S         -0.00242   0.00053  -0.00002   0.00419  -0.00003
  38        2S         -0.00494   0.00116  -0.00062  -0.00948  -0.00004
  39        2PX        -0.13915   0.00654  -0.24604   0.00663  -0.01194
  40        2PY        -0.24175   0.01193   0.14112  -0.00989   0.00696
  41        2PZ        -0.00343  -0.11071   0.00004  -0.00284  -0.00080
  42        3S         -0.16574  -0.00037   0.00663   0.21677  -0.00005
  43        3PX        -0.02640   0.00376   0.18832  -0.17229   0.01293
  44        3PY        -0.03231   0.00569  -0.14526  -0.28084  -0.00893
  45        3PZ         0.00045   0.01058  -0.00011   0.00046   0.00131
  46        4S          4.44979  -0.16662   0.00294  -0.26738   0.00036
  47        4PX        -1.28826   0.05068  -0.03748  -0.14596  -0.00769
  48        4PY        -2.22382   0.08765  -0.00620  -0.23665   0.00433
  49        4PZ        -0.00737  -0.15706   0.00005  -0.00202  -0.00142
  50        5S         -9.55241   0.32959   0.01176  -0.45761   0.00470
  51        5PX         1.21967  -0.05173  -4.11450   0.12760  -0.11599
  52        5PY         2.09261  -0.07698   2.41322  -0.18023   0.06779
  53        5PZ        -0.00093   0.10151   0.00009  -0.00060   0.00093
  54        6D 0       -0.57046   0.02638   0.00168   0.07949  -0.00017
  55        6D+1        0.01768   0.50424   0.02674  -0.00375  -0.70757
  56        6D-1        0.03092   0.86150  -0.01750  -0.00319   0.42476
  57        6D+2        0.03306   0.00488   0.61960   0.20235   0.02614
  58        6D-2       -0.06932  -0.00645   0.34859  -0.41265   0.01636
  59 5   H  1S          0.27655  -0.00850  -0.39915   0.34956  -0.01688
  60        2S         -0.90111   0.02509   1.24706  -0.51629   0.04657
  61        3S          1.06868  -0.03463  -2.01001   0.66505  -0.06896
  62        4S         -0.14997   0.00763  -2.76592   0.11098  -0.07297
  63        5PX         0.37262  -0.01252   0.18891   0.47580   0.00753
  64        5PY         0.16937  -0.00377   0.18929   0.16593   0.00689
  65        5PZ        -0.00864  -0.30314   0.01888   0.00112  -0.49172
  66 6   H  1S          0.27230  -0.00740   0.41186   0.31986   0.01530
  67        2S         -0.87820   0.02145  -1.23574  -0.41489  -0.04268
  68        3S          1.05396  -0.02921   2.01622   0.51057   0.06550
  69        4S         -0.16680   0.01513   2.70756  -0.12915   0.07076
  70        5PX        -0.04459   0.00295  -0.08843  -0.08894  -0.00276
  71        5PY         0.40444  -0.01321  -0.21609   0.51005  -0.01066
  72        5PZ        -0.00846  -0.30817  -0.01769   0.00295   0.48125
                          56        57        58        59        60
                           V         V         V         V         V
     Eigenvalues --     2.30145   2.49361   2.52545   2.66333   2.66976
   1 1   C  1S          0.03630   0.02659   0.00016  -0.00027  -0.00018
   2        2S          0.07250   0.05268   0.00094  -0.00037  -0.00089
   3        2PX        -0.06734   0.18194  -0.43579  -0.29338  -0.34186
   4        2PY        -0.11319   0.33086   0.24575   0.16310   0.19749
   5        2PZ         0.00190  -0.00154   0.00002   0.00004  -0.00004
   6        3S         -0.27532  -0.30355  -0.01240   0.00392   0.01573
   7        3PX        -0.59001  -0.15916   1.13396  -0.36770  -1.36077
   8        3PY        -1.01034  -0.25827  -0.64515   0.21621   0.77899
   9        3PZ         0.00219   0.00013  -0.00011  -0.00001   0.00013
  10        4S         -1.67091  -0.08220  -0.02716   0.00306  -0.02077
  11        4PX        -0.44613   0.06209   0.01117   0.13278  -2.30880
  12        4PY        -0.75037   0.14861  -0.01843  -0.07489   1.32149
  13        4PZ         0.00606  -0.00024   0.00002   0.00000   0.00001
  14        5S         -1.01300  -0.56779   0.06013  -0.01152   0.04456
  15        5PX         0.21332   0.00057  -0.59600  -0.16595   1.59470
  16        5PY         0.43511  -0.02476   0.35646   0.08881  -0.91167
  17        5PZ        -0.00905  -0.00117   0.00000   0.00000   0.00004
  18        6D 0        0.53889   0.18792   0.00342   0.00009  -0.00043
  19        6D+1        0.00430  -0.00017   0.00277  -0.00350  -0.01302
  20        6D-1        0.00872  -0.00015  -0.00155   0.00203   0.00744
  21        6D+2        0.51168  -0.21913  -0.19130   0.29934   0.95735
  22        6D-2       -0.88103   0.40415  -0.11416   0.16235   0.55889
  23 2   H  1S          0.40888   0.56707   0.61908   0.04722  -0.30040
  24        2S         -0.91925  -0.52520  -1.71333   0.45817   2.79679
  25        3S          0.72252   0.59810   1.19967  -0.02638  -0.20521
  26        4S          0.46579   0.03062   0.38308  -0.09813  -1.34391
  27        5PX        -0.00679   0.07861   0.09766  -0.20220  -0.63139
  28        5PY        -0.24209   0.38099  -0.46376   0.49913   1.19232
  29        5PZ         0.00162  -0.00298   0.00233  -0.00184  -0.00767
  30 3   H  1S          0.40432   0.56134  -0.63182  -0.07441   0.28502
  31        2S         -0.92889  -0.55584   1.75550  -0.42637  -2.78932
  32        3S          0.69486   0.58593  -1.22417   0.00143   0.18908
  33        4S          0.43634   0.05532  -0.38745   0.09754   1.34282
  34        5PX        -0.22027   0.26392   0.46129  -0.53658  -1.35394
  35        5PY        -0.13097   0.25972   0.14412  -0.08297  -0.04083
  36        5PZ         0.00103  -0.00279  -0.00236   0.00191   0.00766
  37 4   C  1S         -0.03703   0.02885  -0.00001  -0.00012   0.00018
  38        2S         -0.07226   0.05770   0.00081  -0.00031   0.00086
  39        2PX        -0.06527  -0.21286  -0.43578  -0.42642   0.06291
  40        2PY        -0.12240  -0.33610   0.25595   0.25249  -0.03035
  41        2PZ        -0.00141  -0.00173   0.00004  -0.00001   0.00010
  42        3S          0.25711  -0.32154  -0.01411   0.00778  -0.01504
  43        3PX        -0.55424   0.14798   1.03175  -1.12203   0.80290
  44        3PY        -0.97305   0.25198  -0.61679   0.63797  -0.47600
  45        3PZ        -0.00227   0.00007  -0.00014   0.00000  -0.00017
  46        4S          1.75531  -0.31677   0.00876  -0.01257   0.01325
  47        4PX        -0.41518  -0.05597  -0.08711  -1.37337   1.81160
  48        4PY        -0.74978  -0.07779   0.03196   0.79685  -1.06449
  49        4PZ        -0.00573  -0.00047  -0.00007  -0.00005   0.00000
  50        5S          1.04713  -0.41746  -0.00684   0.04613  -0.02325
  51        5PX         0.29666  -0.02015  -0.39293   1.02346  -1.28033
  52        5PY         0.43167  -0.02125   0.25136  -0.59429   0.75524
  53        5PZ         0.00913  -0.00123   0.00011   0.00009  -0.00001
  54        6D 0       -0.56457   0.23415   0.00009   0.00153  -0.00266
  55        6D+1        0.00564  -0.00027   0.00224  -0.01072   0.00752
  56        6D-1        0.00870  -0.00011  -0.00136   0.00618  -0.00443
  57        6D+2       -0.55024  -0.25325   0.15510  -0.87742   0.54219
  58        6D-2        0.94791   0.41764   0.08746  -0.50483   0.30348
  59 5   H  1S         -0.44762   0.57294  -0.63468   0.15247  -0.29642
  60        2S          0.96402  -0.50737   1.62972  -2.12475   1.88058
  61        3S         -0.75609   0.59823  -1.17895   0.18731  -0.17810
  62        4S         -0.42831   0.04374  -0.22918   1.01219  -0.93864
  63        5PX        -0.08263  -0.08712   0.07945  -0.53737   0.34418
  64        5PY        -0.27577  -0.40271  -0.41781   1.14598  -0.60178
  65        5PZ        -0.00132  -0.00312  -0.00189   0.00643  -0.00459
  66 6   H  1S         -0.46028   0.59560   0.60775  -0.19202   0.28799
  67        2S          0.97215  -0.51805  -1.56333   2.18472  -1.85589
  68        3S         -0.80549   0.63764   1.14484  -0.23069   0.17528
  69        4S         -0.47014   0.03459   0.20650  -1.02036   0.92789
  70        5PX        -0.18428  -0.33272   0.38573  -1.26834   0.68886
  71        5PY        -0.20243  -0.27382   0.15084  -0.09454   0.00867
  72        5PZ        -0.00179  -0.00315   0.00190  -0.00642   0.00467
                          61        62        63        64        65
                           V         V         V         V         V
     Eigenvalues --     2.77843   2.79054   2.82892   2.94550   2.99201
   1 1   C  1S          0.04885  -0.04089  -0.00030  -0.04835  -0.00243
   2        2S          0.14109  -0.10424  -0.00070  -0.10188  -0.00506
   3        2PX         0.08950   0.14144  -0.00226  -0.25853  -0.01354
   4        2PY         0.14314   0.23066  -0.00380  -0.44316  -0.02324
   5        2PZ        -0.00530  -0.00356  -0.92811   0.04623  -0.94664
   6        3S         -1.18756   0.85295   0.00536   0.52516   0.02558
   7        3PX         0.40628  -0.43984  -0.00061   0.10802   0.00861
   8        3PY         0.68513  -0.74305  -0.00100   0.20956   0.01581
   9        3PZ        -0.00351   0.00971   1.09073  -0.05607   1.28257
  10        4S         -1.53039   1.29989   0.00851   3.11023   0.16617
  11        4PX         0.18993   0.05483  -0.00236   0.25129   0.01693
  12        4PY         0.33829   0.08534  -0.00405   0.47803   0.03111
  13        4PZ        -0.00632   0.00311  -0.47138   0.03397  -0.66406
  14        5S          2.45572  -5.32913  -0.00422  -3.09653  -0.20351
  15        5PX        -0.08381  -0.39880   0.00146  -0.27667  -0.02047
  16        5PY        -0.14875  -0.68926   0.00246  -0.49411  -0.03638
  17        5PZ         0.00480  -0.00585   0.14233  -0.01815   0.35463
  18        6D 0        0.54150  -0.38001  -0.00249  -0.70873  -0.03481
  19        6D+1        0.00270  -0.00358  -0.06714  -0.00631   0.12259
  20        6D-1        0.00458  -0.00619  -0.11621  -0.01087   0.21548
  21        6D+2       -0.09326  -0.04885   0.00025   0.32984   0.01522
  22        6D-2        0.15931   0.07044  -0.00033  -0.57631  -0.02675
  23 2   H  1S         -0.51031   0.34583   0.00053  -0.30754  -0.01447
  24        2S          2.12140  -1.43485  -0.00922  -0.67291  -0.03388
  25        3S         -0.71960   0.66215   0.00224  -0.16426  -0.00362
  26        4S         -0.46058   0.37624   0.00162   0.27652   0.01184
  27        5PX        -0.65675   0.55433   0.00451   0.07656   0.00191
  28        5PY         0.79434  -0.40881  -0.00431  -0.73117  -0.03618
  29        5PZ        -0.00447   0.00075  -0.11527   0.00901  -0.06849
  30 3   H  1S         -0.49695   0.34683   0.00044  -0.30358  -0.01429
  31        2S          2.12235  -1.43865  -0.00927  -0.70762  -0.03531
  32        3S         -0.71150   0.67072   0.00220  -0.16842  -0.00370
  33        4S         -0.46279   0.37324   0.00168   0.28792   0.01251
  34        5PX         1.03158  -0.62831  -0.00609  -0.68307  -0.03270
  35        5PY        -0.17050   0.27322   0.00177  -0.30487  -0.01673
  36        5PZ        -0.00456   0.00071  -0.11563   0.00918  -0.07034
  37 4   C  1S          0.03078   0.05523  -0.00037   0.04710   0.00238
  38        2S          0.09277   0.14447  -0.00088   0.09906   0.00496
  39        2PX        -0.11911   0.09581   0.00199  -0.23233  -0.01227
  40        2PY        -0.22576   0.15777   0.00355  -0.40162  -0.02114
  41        2PZ        -0.00602   0.00001  -0.93696  -0.04553   0.93811
  42        3S         -0.76731  -1.16405   0.00663  -0.50016  -0.02463
  43        3PX        -0.20426  -0.53118   0.00116   0.10823   0.00842
  44        3PY        -0.35973  -0.93403   0.00198   0.15449   0.01310
  45        3PZ         0.00025  -0.00835   1.10052   0.05531  -1.27077
  46        4S         -0.94646  -1.77945   0.01058  -3.07863  -0.16451
  47        4PX        -0.19808  -0.03477   0.00247   0.28257   0.01817
  48        4PY        -0.37837  -0.06705   0.00439   0.47322   0.03119
  49        4PZ        -0.00483  -0.00596  -0.47655  -0.03370   0.66093
  50        5S          0.39123   5.87730  -0.01190   3.10905   0.20384
  51        5PX         0.22845  -0.32084  -0.00105  -0.28516  -0.02092
  52        5PY         0.40161  -0.57051  -0.00173  -0.49196  -0.03628
  53        5PZ         0.00255   0.00746   0.14575   0.01812  -0.35359
  54        6D 0        0.37508   0.54871  -0.00321   0.68876   0.03391
  55        6D+1       -0.00113  -0.00415   0.06649  -0.00634   0.12467
  56        6D-1       -0.00215  -0.00731   0.11744  -0.01117   0.21752
  57        6D+2       -0.08185   0.01914  -0.00004  -0.31323  -0.01461
  58        6D-2        0.16618  -0.03047   0.00003   0.54052   0.02512
  59 5   H  1S         -0.35270  -0.51238   0.00116   0.25635   0.01218
  60        2S          1.47173   2.09955  -0.01173   0.72980   0.03613
  61        3S         -0.42422  -0.87417   0.00318   0.12781   0.00194
  62        4S         -0.31530  -0.52439   0.00237  -0.27899  -0.01190
  63        5PX         0.40978   0.73983  -0.00547   0.07216   0.00158
  64        5PY        -0.60199  -0.66614   0.00507  -0.72484  -0.03586
  65        5PZ        -0.00396  -0.00243  -0.11759  -0.00854   0.06419
  66 6   H  1S         -0.36705  -0.52317   0.00128   0.26150   0.01236
  67        2S          1.45596   2.09181  -0.01175   0.69777   0.03497
  68        3S         -0.44730  -0.88689   0.00335   0.13299   0.00224
  69        4S         -0.30048  -0.52405   0.00236  -0.27875  -0.01201
  70        5PX        -0.70499  -0.93255   0.00705  -0.65125  -0.03140
  71        5PY         0.05426   0.31237  -0.00222  -0.28976  -0.01608
  72        5PZ        -0.00383  -0.00239  -0.11573  -0.00851   0.06507
                          66        67        68        69        70
                           V         V         V         V         V
     Eigenvalues --     3.24139   3.49362   3.79051   3.94781   4.27014
   1 1   C  1S          0.00095  -0.04909   0.00049   0.00070  -0.03643
[...]
  64        5PY         0.00001  -0.00003   0.00000   0.00003   0.00000
  65        5PZ         0.00000   0.00000   0.00010   0.00000   0.00007
  66 6   H  1S          0.00074  -0.00000   0.00000   0.00048   0.00000
  67        2S          0.00261  -0.00001   0.00000   0.00038   0.00000
  68        3S          0.00147  -0.00000  -0.00000   0.00000   0.00000
  69        4S         -0.00009   0.00000  -0.00000   0.00000   0.00000
  70        5PX        -0.00003  -0.00000   0.00000   0.00004   0.00000
  71        5PY         0.00000   0.00001   0.00000  -0.00000   0.00000
  72        5PZ         0.00000   0.00000   0.00010   0.00000  -0.00014
                          56        57        58        59        60
  56        6D-1        0.00076
  57        6D+2        0.00000   0.00192
  58        6D-2        0.00000   0.00000   0.00130
  59 5   H  1S          0.00000   0.00085   0.00209   0.07966
  60        2S          0.00000   0.00084   0.00198   0.07961   0.16039
  61        3S          0.00000   0.00006   0.00013   0.01089   0.03391
  62        4S          0.00000  -0.00000   0.00000   0.00099   0.00332
  63        5PX         0.00000  -0.00010  -0.00006   0.00000   0.00000
  64        5PY         0.00000  -0.00005   0.00008   0.00000   0.00000
  65        5PZ        -0.00022   0.00000   0.00000   0.00000   0.00000
  66 6   H  1S         -0.00000   0.00293   0.00000  -0.00001  -0.00071
  67        2S         -0.00000   0.00284   0.00000  -0.00071  -0.00557
  68        3S         -0.00000   0.00020   0.00000  -0.00160  -0.00634
  69        4S          0.00000  -0.00000  -0.00000   0.00021   0.00070
  70        5PX        -0.00000   0.00010  -0.00000   0.00000  -0.00004
  71        5PY         0.00000   0.00000  -0.00023   0.00002   0.00028
  72        5PZ        -0.00000   0.00000   0.00000  -0.00000  -0.00000
                          61        62        63        64        65
  61        3S          0.01415
  62        4S          0.00082   0.00079
  63        5PX         0.00000   0.00000   0.00055
  64        5PY         0.00000   0.00000   0.00000   0.00096
  65        5PZ         0.00000   0.00000   0.00000   0.00000   0.00045
  66 6   H  1S         -0.00160   0.00019   0.00003  -0.00001   0.00000
  67        2S         -0.00637   0.00064   0.00041  -0.00016   0.00000
  68        3S         -0.00416   0.00027   0.00011  -0.00011   0.00000
  69        4S          0.00027  -0.00002   0.00002   0.00000  -0.00000
  70        5PX        -0.00012   0.00001   0.00003   0.00000   0.00000
  71        5PY         0.00011   0.00001   0.00001   0.00000  -0.00000
  72        5PZ        -0.00000   0.00000   0.00000  -0.00000   0.00000
                          66        67        68        69        70
  66 6   H  1S          0.07936
  67        2S          0.07954   0.16072
  68        3S          0.01105   0.03449   0.01453
  69        4S          0.00104   0.00351   0.00092   0.00084
  70        5PX         0.00000   0.00000   0.00000   0.00000   0.00118
  71        5PY         0.00000   0.00000   0.00000   0.00000   0.00000
  72        5PZ         0.00000   0.00000   0.00000   0.00000   0.00000
                          71        72
  71        5PY         0.00032
  72        5PZ         0.00000   0.00045
     Gross orbital populations:
                           1
   1 1   C  1S          1.10446
   2        2S          0.88473
   3        2PX         0.23336
   4        2PY         0.23903
   5        2PZ         0.16260
   6        3S          0.75729
   7        3PX         0.51873
   8        3PY         0.52761
   9        3PZ         0.40770
  10        4S          0.49029
  11        4PX         0.27310
  12        4PY         0.22569
  13        4PZ         0.38265
  14        5S         -0.01813
  15        5PX         0.00321
  16        5PY        -0.00097
  17        5PZ         0.02746
  18        6D 0        0.00316
  19        6D+1        0.00195
  20        6D-1        0.00592
  21        6D+2        0.01739
  22        6D-2        0.01229
  23 2   H  1S          0.27645
  24        2S          0.48839
  25        3S          0.06477
  26        4S          0.01482
  27        5PX         0.00731
  28        5PY         0.01189
  29        5PZ         0.00617
  30 3   H  1S          0.27759
  31        2S          0.48797
  32        3S          0.06423
  33        4S          0.01542
  34        5PX         0.01432
  35        5PY         0.00496
  36        5PZ         0.00624
  37 4   C  1S          1.10448
  38        2S          0.88475
  39        2PX         0.23113
  40        2PY         0.23881
  41        2PZ         0.16239
  42        3S          0.75772
  43        3PX         0.51727
  44        3PY         0.52691
  45        3PZ         0.40703
  46        4S          0.49284
  47        4PX         0.27699
  48        4PY         0.22697
  49        4PZ         0.38238
  50        5S         -0.02026
  51        5PX         0.00160
  52        5PY        -0.00169
  53        5PZ         0.02763
  54        6D 0        0.00314
  55        6D+1        0.00195
  56        6D-1        0.00589
  57        6D+2        0.01766
  58        6D-2        0.01209
  59 5   H  1S          0.27538
  60        2S          0.48888
  61        3S          0.06601
  62        4S          0.01479
  63        5PX         0.00716
  64        5PY         0.01190
  65        5PZ         0.00605
  66 6   H  1S          0.27441
  67        2S          0.48932
  68        3S          0.06762
  69        4S          0.01580
  70        5PX         0.01422
  71        5PY         0.00475
  72        5PZ         0.00600
          Condensed to atoms (all electrons):
               1          2          3          4          5          6
     1  C    4.890236   0.419946   0.420324   0.609215  -0.039757  -0.040462
     2  H    0.419946   0.513577  -0.022198  -0.040614   0.002026  -0.002936
     3  H    0.420324  -0.022198   0.514036  -0.040856  -0.002819   0.002251
     4  C    0.609215  -0.040614  -0.040856   4.892046   0.418885   0.418967
     5  H   -0.039757   0.002026  -0.002819   0.418885   0.516033  -0.024183
     6  H   -0.040462  -0.002936   0.002251   0.418967  -0.024183   0.518492
 Mulliken charges:
               1
     1  C   -0.259502
     2  H    0.130199
     3  H    0.129261
     4  C   -0.257644
     5  H    0.129815
     6  H    0.127870
 Sum of Mulliken charges =  -0.00000
 Mulliken charges with hydrogens summed into heavy atoms:
               1
     1  C   -0.000042
     4  C    0.000042
 Electronic spatial extent (au):  <R**2>=             82.9412
 Charge=             -0.0000 electrons
 Dipole moment (field-independent basis, Debye):
    X=             -0.0001    Y=              0.0035    Z=              0.0176  Tot=              0.0179
 Quadrupole moment (field-independent basis, Debye-Ang):
   XX=            -12.1628   YY=            -12.2553   ZZ=            -15.8453
   XY=             -0.1063   XZ=              0.0000   YZ=              0.0000
 Traceless Quadrupole moment (field-independent basis, Debye-Ang):
   XX=              1.2584   YY=              1.1658   ZZ=             -2.4242
   XY=             -0.1063   XZ=              0.0000   YZ=              0.0000
 Octapole moment (field-independent basis, Debye-Ang**2):
  XXX=             -0.1106  YYY=             -0.0591  ZZZ=             -0.0687  XYY=              0.0026
  XXY=             -0.0282  XXZ=              0.0061  XZZ=             -0.0462  YZZ=             -0.0433
  YYZ=              0.0124  XYZ=              0.0054
 Hexadecapole moment (field-independent basis, Debye-Ang**3):
 XXXX=            -33.9805 YYYY=            -55.2916 ZZZZ=            -20.2679 XXXY=             -7.3831
 XXXZ=             -0.0002 YYYX=            -11.0388 YYYZ=              0.0000 ZZZX=             -0.0007
 ZZZY=             -0.0007 XXYY=            -16.3062 XXZZ=            -10.3811 YYZZ=            -14.0539
 XXYZ=             -0.0000 YYXZ=              0.0002 ZZXY=             -3.1558
 N-N= 3.329687965328D+01 E-N=-2.483542133363D+02  KE= 7.819205424549D+01
 Orbital energies and kinetic energies (alpha):
                                 1                 2
   1         O               -10.286190         15.972713
   2         O               -10.284691         15.974495
   3         O                -0.861360          1.498950
   4         O                -0.679118          1.292143
   5         O                -0.566970          0.954594
   6         O                -0.501301          1.306551
   7         O                -0.450161          1.079664
   8         O                -0.355071          1.016916
   9         V                 0.050969          0.139570
  10         V                 0.059135          0.910536
  11         V                 0.065141          0.129008
  12         V                 0.066271          0.114004
  13         V                 0.085759          0.102374
  14         V                 0.125378          0.240913
  15         V                 0.138932          0.195629
  16         V                 0.172301          0.259350
  17         V                 0.177135          0.224985
  18         V                 0.179199          0.566258
  19         V                 0.198490          0.341082
  20         V                 0.214346          0.414484
  21         V                 0.222344          0.716369
  22         V                 0.226228          0.373353
  23         V                 0.247554          0.713552
  24         V                 0.276069          0.735111
  25         V                 0.420647          0.913992
  26         V                 0.427127          1.200336
  27         V                 0.511295          0.900153
  28         V                 0.528908          0.968094
  29         V                 0.604660          1.334488
  30         V                 0.615025          1.327201
  31         V                 0.621039          1.413377
  32         V                 0.681076          1.661491
  33         V                 0.730883          1.648104
  34         V                 0.812074          2.172232
  35         V                 0.835488          1.834136
  36         V                 0.843439          2.373477
  37         V                 0.869588          1.359729
  38         V                 0.935654          2.753212
  39         V                 1.075394          1.795034
  40         V                 1.177586          1.988154
  41         V                 1.189941          1.864586
  42         V                 1.481482          2.213163
  43         V                 1.484411          2.092515
  44         V                 1.524124          2.315236
  45         V                 1.688301          2.553574
  46         V                 1.693795          2.557029
  47         V                 1.698873          2.376304
  48         V                 1.705638          2.391139
  49         V                 1.844082          2.578563
  50         V                 1.907976          2.559110
  51         V                 2.047857          3.285637
  52         V                 2.161392          3.048897
  53         V                 2.194093          3.590336
  54         V                 2.217937          3.123253
  55         V                 2.263811          3.011419
  56         V                 2.301448          3.749874
  57         V                 2.493612          4.378147
  58         V                 2.525450          4.481965
  59         V                 2.663331          4.250853
  60         V                 2.669755          3.833536
  61         V                 2.778425          4.112602
  62         V                 2.790542          4.118116
  63         V                 2.828924          6.320391
  64         V                 2.945504          5.003005
  65         V                 2.992014          6.352141
  66         V                 3.241388          5.240872
  67         V                 3.493621          7.011595
  68         V                 3.790513          6.218819
  69         V                 3.947806          6.460614
  70         V                 4.270138          6.902702
  71         V                23.925548         60.324849
  72         V                24.326499         60.455812
 Total kinetic energy from orbitals= 7.819205424549D+01
 Calling FoFJK, ICntrl=      2127 FMM=F ISym2X=0 I1Cent= 0 IOpClX= 0 NMat=1 NMatS=1 NMatT=0.
 -------------------------------------------------------------------
 Center     Atomic                   Forces (Hartrees/Bohr)
 Number     Number              X              Y              Z
 -------------------------------------------------------------------
      1        6           0.025844540    0.041949512    0.000518504
      2        1           0.001978542   -0.011464268   -0.000262823
      3        1          -0.013624448   -0.004390462   -0.000252034
      4        6          -0.018064280   -0.037253855    0.000567807
      5        1          -0.002002247    0.008289213   -0.000279328
      6        1           0.005867894    0.002869860   -0.000292127
 -------------------------------------------------------------------
 Cartesian Forces:  Max     0.041949512 RMS     0.015983309

 GradGradGradGradGradGradGradGradGradGradGradGradGradGradGradGradGradGrad
 Berny optimization.
 Search for a local minimum.
 Step number   1 out of a maximum of    2
 All quantities printed in internal units (Hartrees-Bohrs-Radians)
 Second derivative matrix not updated -- first step.
 The second derivative matrix:
                          X1        Y1        Z1        X2        Y2
           X1           0.78541
           Y1           0.06769   0.86181
           Z1          -0.00119  -0.00201   0.16589
           X2          -0.17699   0.10804  -0.00048   0.15366
           Y2           0.11509  -0.31087   0.00161  -0.12872   0.29879
           Z2          -0.00073   0.00199  -0.05501   0.00067  -0.00166
           X3          -0.37841   0.00138   0.00167   0.00018   0.00010
           Y3          -0.00552  -0.11429   0.00040   0.03398   0.01985
           Z3           0.00212   0.00036  -0.05521  -0.00031  -0.00012
           X4          -0.25340  -0.16368   0.00020   0.02315   0.01353
           Y4          -0.16379  -0.44440   0.00034  -0.01331  -0.00777
           Z4          -0.00020  -0.00035  -0.08696   0.00012   0.00016
           X5           0.02325  -0.01336  -0.00012  -0.00000   0.00000
           Y5           0.01315  -0.00756  -0.00016   0.00000  -0.00000
           Z5           0.00008  -0.00005   0.01573  -0.00004   0.00003
           X6           0.00013  -0.00008  -0.00008  -0.00000   0.00000
           Y6          -0.02663   0.01530  -0.00018   0.00000  -0.00000
           Z6          -0.00008   0.00005   0.01557   0.00004  -0.00003
                          Z2        X3        Y3        Z3        X4
           Z2           0.02848
           X3           0.00006   0.37837
           Y3          -0.00033  -0.00156   0.07897
           Z3           0.01107  -0.00180  -0.00025   0.02858
           X4          -0.00008  -0.00014  -0.02690   0.00008   0.76658
           Y4           0.00005   0.00008   0.01546  -0.00005   0.07396
           Z4           0.01540   0.00008   0.00019   0.01563   0.00111
           X5           0.00005  -0.00000   0.00000  -0.00005  -0.17151
           Y5          -0.00003   0.00000  -0.00000   0.00003   0.11168
           Z5           0.00875  -0.00004   0.00003  -0.00876   0.00071
           X6           0.00004  -0.00000   0.00000  -0.00004  -0.36468
           Y6          -0.00003   0.00000  -0.00000   0.00003  -0.00859
           Z6          -0.00869   0.00004  -0.00003   0.00870  -0.00202
                          Y4        Z4        X5        Y5        Z5
           Y4           0.85846
           Z4           0.00196   0.16582
           X5           0.10431   0.00046   0.14843
           Y5          -0.30994  -0.00158  -0.12473   0.29839
           Z5          -0.00195  -0.05518  -0.00064   0.00164   0.02855
           X6          -0.00126  -0.00158  -0.00017  -0.00010  -0.00006
           Y6          -0.11180  -0.00038   0.03378   0.01911   0.00031
           Z6          -0.00035  -0.05470   0.00030   0.00010   0.01092
                          X6        Y6        Z6
           X6           0.36472
           Y6           0.00144   0.07739
           Z6           0.00172   0.00025   0.02821
 ITU=  0
     Eigenvalues ---    0.03490   0.04548   0.09704   0.09885   0.13551
     Eigenvalues ---    0.19081   0.24946   0.31518   0.56487   0.78947
     Eigenvalues ---    1.05436   1.51423
 Angle between quadratic step and forces=  22.77 degrees.
 Linear search not attempted -- first point.
 B after Tr=     0.001623    0.001398    0.001832
         Rot=    1.000000    0.000001   -0.000000    0.000091 Ang=   0.01 deg.
 Variable       Old X    -DE/DX   Delta X   Delta X   Delta X     New X
                                 (Linear)    (Quad)   (Total)
    X1       -0.63686   0.02584   0.00000   0.01554   0.01697  -0.61989
    Y1       -1.10915   0.04195   0.00000   0.02770   0.02921  -1.07994
    Z1        0.00137   0.00052   0.00000   0.00379   0.00563   0.00700
    X2        0.38181   0.00198   0.00000   0.00059   0.00169   0.38350
    Y2       -2.85285  -0.01146   0.00000  -0.01482  -0.01350  -2.86634
    Z2        0.01172  -0.00026   0.00000  -0.00460  -0.00277   0.00895
    X3       -2.64981  -0.01362   0.00000  -0.02064  -0.01922  -2.66903
    Y3       -1.09864  -0.00439   0.00000  -0.01012  -0.00824  -1.10688
    Z3        0.01174  -0.00025   0.00000  -0.00470  -0.00286   0.00887
    X4        0.63962  -0.01806   0.00000  -0.00882  -0.00700   0.63262
    Y4        1.11190  -0.03725   0.00000  -0.02192  -0.02063   1.09127
    Z4        0.00137   0.00057   0.00000   0.00379   0.00562   0.00699
    X5       -0.35834  -0.00200   0.00000  -0.00363  -0.00148  -0.35982
    Y5        2.87623   0.00829   0.00000   0.00660   0.00806   2.88429
    Z5        0.01173  -0.00028   0.00000  -0.00459  -0.00276   0.00897
    X6        2.67305   0.00587   0.00000   0.00722   0.00905   2.68210
    Y6        1.12207   0.00287   0.00000   0.00418   0.00509   1.12716
    Z6        0.01175  -0.00029   0.00000  -0.00469  -0.00286   0.00889
         Item               Value     Threshold  Converged?
 Maximum Force            0.041950     0.000450     NO 
 RMS     Force            0.015983     0.000300     NO 
 Maximum Displacement     0.029212     0.001800     NO 
 RMS     Displacement     0.011804     0.001200     NO 
 Predicted change in Energy=-1.580875D-03
 GradGradGradGradGradGradGradGradGradGradGradGradGradGradGradGradGradGrad

 Unable to Open any file for archive entry.
 1\1\GINC-BHD0002\Force\RwB97XD\6-311++G(d,p)\C2H4\BWEIGHT\14-Jan-2023\
 0\\# WB97XD/6-311++G** SCF=XQC FORCE nosym pop=full guess=read\\MD Ste
 p 2\\0,1\C,-0.33701235,-0.58693592,0.00072688\H,0.20204464,-1.50966191
 ,0.00620281\H,-1.40221711,-0.58137728,0.0062108\C,0.33847282,0.5883928
 9,0.00072523\H,-0.18962328,1.52203606,0.00620827\H,1.41451752,0.593774
 05,0.00621607\\Version=ES64L-G16RevC.01\HF=-78.5788778\RMSD=2.246e-09\
 RMSF=1.598e-02\Dipole=-0.0000249,0.0013671,0.0069198\Quadrupole=0.9355
 558,0.8667752,-1.802331,-0.0789976,0.0000361,0.0000246\PG=C01 [X(C2H4)
 ]\\@
 The archive entry for this job was punched.


 THEORY:  SUPPOSITION WHICH HAS SCIENTIFIC BASIS,
          BUT NOT EXPERIMENTALLY PROVEN.
 FACT:    A THEORY WHICH HAS BEEN PROVEN BY ENOUGH 
          MONEY TO PAY FOR THE EXPERIMENTS.

                          --  THE WIZARD OF ID
 Job cpu time:       0 days  0 hours  0 minutes 57.0 seconds.
 Elapsed time:       0 days  0 hours  0 minutes  2.8 seconds.
 File lengths (MBytes):  RWF=    272 Int=      0 D2E=      0 Chk=     32 Scr=     32
 Normal termination of Gaussian 16 at Sat Jan 14 14:16:10 2023.
