 Entering Gaussian System, Link 0=g16
 Initial command:
 /software/gaussian/g16-c01/avx2/g16/l1.exe "/gpfs/fs2/scratch/bweight/software/many_molecule_many_mode_NAMD/src/NAMD/TEST_NVT/TRAJ/traj-85/G16/GS_NEW/Gau-20968.inp" -scrdir="/gpfs/fs2/scratch/bweight/software/many_molecule_many_mode_NAMD/src/NAMD/TEST_NVT/TRAJ/traj-85/G16/GS_NEW/"
 Entering Link 1 = /software/gaussian/g16-c01/avx2/g16/l1.exe PID=     20969.
  
 Copyright (c) 1988-2019, Gaussian, Inc.  All Rights Reserved.
  
 This is part of the Gaussian(R) 16 program.  It is based on
 the Gaussian(R) 09 system (copyright 2009, Gaussian, Inc.),
 the Gaussian(R) 03 system (copyright 2003, Gaussian, Inc.),
 the Gaussian(R) 98 system (copyright 1998, Gaussian, Inc.),
 the Gaussian(R) 94 system (copyright 1995, Gaussian, Inc.),
 the Gaussian 92(TM) system (copyright 1992, Gaussian, Inc.),
 the Gaussian 90(TM) system (copyright 1990, Gaussian, Inc.),
 the Gaussian 88(TM) system (copyright 1988, Gaussian, Inc.),
 the Gaussian 86(TM) system (copyright 1986, Carnegie Mellon
 University), and the Gaussian 82(TM) system (copyright 1983,
 Carnegie Mellon University). Gaussian is a federally registered
 trademark of Gaussian, Inc.
  
 This software contains proprietary and confidential information,
 including trade secrets, belonging to Gaussian, Inc.
  
 This software is provided under written license and may be
 used, copied, transmitted, or stored only in accord with that
 written license.
  
 The following legend is applicable only to US Government
 contracts under FAR:
  
                    RESTRICTED RIGHTS LEGEND
  
 Use, reproduction and disclosure by the US Government is
 subject to restrictions as set forth in subparagraphs (a)
 and (c) of the Commercial Computer Software - Restricted
 Rights clause in FAR 52.227-19.
  
 Gaussian, Inc.
 340 Quinnipiac St., Bldg. 40, Wallingford CT 06492
  
  
 ---------------------------------------------------------------
 Warning -- This program may not be used in any manner that
 competes with the business of Gaussian, Inc. or will provide
 assistance to any competitor of Gaussian, Inc.  The licensee
 of this program is prohibited from giving any competitor of
 Gaussian, Inc. access to this program.  By using this program,
 the user acknowledges that Gaussian, Inc. is engaged in the
 business of creating and licensing software in the field of
 computational chemistry and represents and warrants to the
 licensee that it is not a competitor of Gaussian, Inc. and that
 it will not use this program in any manner prohibited above.
 ---------------------------------------------------------------
  

 Cite this work as:
 Gaussian 16, Revision C.01,
 M. J. Frisch, G. W. Trucks, H. B. Schlegel, G. E. Scuseria, 
 M. A. Robb, J. R. Cheeseman, G. Scalmani, V. Barone, 
 G. A. Petersson, H. Nakatsuji, X. Li, M. Caricato, A. V. Marenich, 
 J. Bloino, B. G. Janesko, R. Gomperts, B. Mennucci, H. P. Hratchian, 
 J. V. Ortiz, A. F. Izmaylov, J. L. Sonnenberg, D. Williams-Young, 
 F. Ding, F. Lipparini, F. Egidi, J. Goings, B. Peng, A. Petrone, 
 T. Henderson, D. Ranasinghe, V. G. Zakrzewski, J. Gao, N. Rega, 
 G. Zheng, W. Liang, M. Hada, M. Ehara, K. Toyota, R. Fukuda, 
 J. Hasegawa, M. Ishida, T. Nakajima, Y. Honda, O. Kitao, H. Nakai, 
 T. Vreven, K. Throssell, J. A. Montgomery, Jr., J. E. Peralta, 
 F. Ogliaro, M. J. Bearpark, J. J. Heyd, E. N. Brothers, K. N. Kudin, 
 V. N. Staroverov, T. A. Keith, R. Kobayashi, J. Normand, 
 K. Raghavachari, A. P. Rendell, J. C. Burant, S. S. Iyengar, 
 J. Tomasi, M. Cossi, J. M. Millam, M. Klene, C. Adamo, R. Cammi, 
 J. W. Ochterski, R. L. Martin, K. Morokuma, O. Farkas, 
 J. B. Foresman, and D. J. Fox, Gaussian, Inc., Wallingford CT, 2019.
 
 ******************************************
 Gaussian 16:  ES64L-G16RevC.01  3-Jul-2019
                11-Jan-2023 
 ******************************************
 %oldchk=../GS_OLD/geometry.chk
 %chk=geometry.chk
 %nprocshared=4
 Will use up to    4 processors via shared memory.
 %mem=5GB
 Copying data from "../GS_OLD/geometry.chk" to current chk file "geometry.chk"
 IOpt=  2 FromEx=T IUOpen= 4 IOptOp= 5 NList=   0 IFRang= 0 IUIn= 4 IUOut= 2.
 -------------------------------------------------------
 # WB97XD/6-311G SCF=XQC FORCE nosym pop=full guess=read
 -------------------------------------------------------
 1/10=7,30=1,38=1/1,3;
 2/12=2,15=1,17=6,18=5,40=1/2;
 3/5=4,6=6,11=2,25=1,30=1,71=1,74=-58,116=-2/1,2,3;
 4/5=1/1;
 5/5=2,8=3,13=1,38=6/2,8;
 6/7=3,28=1/1;
 7/29=1,30=1/1,2,3,16;
 1/10=7,30=1/3;
 99//99;
 -----------
 MD Step 999
 -----------
 Symbolic Z-matrix:
 Charge =  0 Multiplicity = 1
 C                    -0.33655  -0.58227   0.0077 
 H                     0.22271  -1.52117  -0.02634 
 H                    -1.42121  -0.58542  -0.02819 
 C                     0.33245   0.5764    0.00528 
 H                    -0.15404   1.56843  -0.03124 
 H                     1.44096   0.64764  -0.02931 
 

 GradGradGradGradGradGradGradGradGradGradGradGradGradGradGradGradGradGrad
 Berny optimization.
 Initialization pass.
 Trust Radius=3.00D-01 FncErr=1.00D-07 GrdErr=1.00D-07 EigMax=2.50D+02 EigMin=1.00D-04
 Number of steps in this run=      2 maximum allowed number of steps=      2.
 GradGradGradGradGradGradGradGradGradGradGradGradGradGradGradGradGradGrad

                          Input orientation:                          
 ---------------------------------------------------------------------
 Center     Atomic      Atomic             Coordinates (Angstroms)
 Number     Number       Type             X           Y           Z
 ---------------------------------------------------------------------
      1          6           0       -0.336550   -0.582269    0.007697
      2          1           0        0.222712   -1.521171   -0.026336
      3          1           0       -1.421211   -0.585423   -0.028193
      4          6           0        0.332453    0.576405    0.005284
      5          1           0       -0.154040    1.568435   -0.031238
      6          1           0        1.440960    0.647643   -0.029305
 ---------------------------------------------------------------------
                    Distance matrix (angstroms):
                    1          2          3          4          5
     1  C    0.000000
     2  H    1.093375   0.000000
     3  H    1.085259   1.891589   0.000000
     4  C    1.337945   2.100682   2.103877   0.000000
     5  H    2.158785   3.112496   2.498967   1.105501   0.000000
     6  H    2.161850   2.487547   3.116484   1.111332   1.841708
                    6
     6  H    0.000000
 Symmetry turned off by external request.
 Stoichiometry    C2H4
 Framework group  C1[X(C2H4)]
 Deg. of freedom    12
 Full point group                 C1      NOp   1
 Rotational constants (GHZ):         143.7119196          29.7031396          24.6257431
 Standard basis: 6-311G (5D, 7F)
    38 basis functions,    72 primitive gaussians,    38 cartesian basis functions
     8 alpha electrons        8 beta electrons
       nuclear repulsion energy        33.0885479261 Hartrees.
 NAtoms=    6 NActive=    6 NUniq=    6 SFac= 1.00D+00 NAtFMM=   60 NAOKFM=F Big=F
 Integral buffers will be    131072 words long.
 Raffenetti 2 integral format.
 Two-electron integral symmetry is turned off.
 Nuclear repulsion after empirical dispersion term =       33.0877071540 Hartrees.
 One-electron integrals computed using PRISM.
 NBasis=    38 RedAO= T EigKep=  6.42D-03  NBF=    38
 NBsUse=    38 1.00D-06 EigRej= -1.00D+00 NBFU=    38
 Initial guess from the checkpoint file:  "geometry.chk"
 B after Tr=    -0.000150   -0.000203   -0.000475
         Rot=    1.000000    0.000002    0.000000    0.000005 Ang=   0.00 deg.
 Keep R1 ints in memory in canonical form, NReq=4036876.
 Requested convergence on RMS density matrix=1.00D-08 within  32 cycles.
 Requested convergence on MAX density matrix=1.00D-06.
 Requested convergence on             energy=1.00D-06.
 No special actions if energy rises.
 SCF Done:  E(RwB97XD) =  -78.5555460894     A.U. after    8 cycles
            NFock=  8  Conv=0.63D-08     -V/T= 2.0051
 QCSCF skips out because SCF is already converged.

 **********************************************************************

            Population analysis using the SCF Density.

 **********************************************************************

 Alpha  occ. eigenvalues --  -10.29015 -10.28763  -0.86402  -0.67255  -0.55977
 Alpha  occ. eigenvalues --   -0.50945  -0.43650  -0.35688
 Alpha virt. eigenvalues --    0.07976   0.14109   0.16491   0.17037   0.24088
 Alpha virt. eigenvalues --    0.37286   0.39359   0.40014   0.46417   0.48932
 Alpha virt. eigenvalues --    0.49381   0.59113   0.66575   0.69199   0.77281
 Alpha virt. eigenvalues --    0.77604   0.84100   0.95218   2.23104   2.29059
 Alpha virt. eigenvalues --    2.33325   2.40674   2.67136   2.81744   2.87836
 Alpha virt. eigenvalues --    2.95140   3.14136   3.31981  23.35281  23.70640
     Molecular Orbital Coefficients:
                           1         2         3         4         5
                           O         O         O         O         O
     Eigenvalues --   -10.29015 -10.28763  -0.86402  -0.67255  -0.55977
   1 1   C  1S          0.09975   0.55449  -0.08850   0.06667  -0.00013
   2        2S          0.08229   0.45633  -0.13989   0.10677  -0.00022
   3        2PX         0.00016  -0.00001   0.02624   0.03570   0.13875
   4        2PY         0.00028  -0.00001   0.04604   0.05962  -0.07495
   5        2PZ         0.00000  -0.00001  -0.00149   0.00216   0.00028
   6        3S          0.00173   0.01455   0.37520  -0.29131   0.00057
   7        3PX        -0.00061   0.00043   0.03488   0.05736   0.21743
   8        3PY        -0.00104   0.00076   0.06072   0.09657  -0.11814
   9        3PZ        -0.00001  -0.00004  -0.00248   0.00384   0.00042
  10        4S          0.00330  -0.01470   0.19187  -0.22501  -0.00019
  11        4PX         0.00150  -0.00157   0.00492   0.02331   0.11220
  12        4PY         0.00257  -0.00265   0.00850   0.03968  -0.06147
  13        4PZ         0.00000   0.00009  -0.00086   0.00192   0.00021
  14 2   H  1S         -0.00004  -0.00007   0.05325  -0.08749   0.10388
  15        2S         -0.00030   0.00011   0.05428  -0.10530   0.13124
  16        3S          0.00082   0.00170  -0.00175  -0.01515   0.04237
  17 3   H  1S         -0.00005  -0.00007   0.05391  -0.09027  -0.10657
  18        2S         -0.00030   0.00008   0.05474  -0.10790  -0.13382
  19        3S          0.00085   0.00171  -0.00184  -0.01575  -0.04315
  20 4   C  1S          0.55449  -0.09994  -0.08675  -0.06849   0.00001
  21        2S          0.45639  -0.08205  -0.13696  -0.10985   0.00004
  22        2PX        -0.00001  -0.00017  -0.02733   0.03816   0.11696
  23        2PY        -0.00002  -0.00029  -0.04684   0.06728  -0.07258
  24        2PZ        -0.00000   0.00000  -0.00112  -0.00226   0.00027
  25        3S          0.01406  -0.00343   0.36685   0.30019  -0.00019
  26        3PX        -0.00021   0.00073  -0.03406   0.06177   0.18300
  27        3PY        -0.00034   0.00126  -0.05848   0.10852  -0.11267
  28        3PZ        -0.00004  -0.00001  -0.00194  -0.00407   0.00041
  29        4S         -0.01228   0.00836   0.18851   0.23809  -0.00116
  30        4PX         0.00087  -0.00189  -0.00527   0.02673   0.10075
  31        4PY         0.00150  -0.00333  -0.00924   0.04648  -0.06182
  32        4PZ         0.00007  -0.00002  -0.00082  -0.00210   0.00022
  33 5   H  1S         -0.00006  -0.00004   0.04943   0.09388  -0.08827
  34        2S         -0.00002  -0.00031   0.05065   0.11183  -0.11110
  35        3S          0.00179   0.00016  -0.00105   0.01673  -0.03556
  36 6   H  1S         -0.00005  -0.00004   0.04886   0.09246   0.08451
  37        2S         -0.00002  -0.00033   0.05028   0.11064   0.10681
  38        3S          0.00177   0.00014  -0.00108   0.01641   0.03453
                           6         7         8         9        10
                           O         O         O         V         V
     Eigenvalues --    -0.50945  -0.43650  -0.35688   0.07976   0.14109
   1 1   C  1S         -0.00321   0.00016  -0.00115   0.00302  -0.03296
   2        2S         -0.00476   0.00028  -0.00186   0.00501  -0.05287
   3        2PX         0.09450  -0.10980  -0.00376   0.00169  -0.03179
   4        2PY         0.16856   0.06507  -0.00630   0.00262  -0.06386
   5        2PZ         0.00559  -0.00004   0.17936  -0.18890  -0.00273
   6        3S          0.01874  -0.00070   0.00545  -0.01515   0.11472
   7        3PX         0.13725  -0.17525  -0.00533   0.00255  -0.03770
   8        3PY         0.24604   0.10390  -0.00888   0.00393  -0.07894
   9        3PZ         0.00887  -0.00004   0.28856  -0.27795  -0.00436
  10        4S         -0.05481  -0.00255   0.00768  -0.01721   1.21821
  11        4PX         0.06908  -0.10891  -0.00441   0.01427  -0.19214
  12        4PY         0.12476   0.06547  -0.00737   0.02299  -0.37723
  13        4PZ         0.00505   0.00002   0.26699  -0.69463  -0.01601
  14 2   H  1S         -0.08080  -0.11410   0.00015   0.00473  -0.01652
  15        2S         -0.11180  -0.17565   0.00222   0.00740  -0.04647
  16        3S         -0.04177  -0.08108   0.00132   0.01934  -0.82242
  17 3   H  1S         -0.07959   0.11172   0.00008   0.00475  -0.01340
  18        2S         -0.10960   0.17163   0.00214   0.00763  -0.03873
  19        3S         -0.04063   0.07919   0.00127   0.01940  -0.76908
  20 4   C  1S         -0.00890  -0.00042  -0.00085  -0.00286  -0.03661
  21        2S         -0.01396  -0.00071  -0.00139  -0.00474  -0.05881
  22        2PX        -0.09808   0.12596   0.00364   0.00177   0.04039
  23        2PY        -0.16188  -0.07450   0.00675   0.00343   0.06176
  24        2PZ         0.00595   0.00027   0.17907   0.18939  -0.00329
  25        3S          0.04473   0.00209   0.00412   0.01424   0.12997
  26        3PX        -0.14515   0.20137   0.00507   0.00275   0.04932
  27        3PY        -0.23821  -0.11877   0.00949   0.00529   0.07321
  28        3PZ         0.00940   0.00042   0.28658   0.27776  -0.00499
  29        4S         -0.02651   0.00225   0.00717   0.01559   1.25090
  30        4PX        -0.07585   0.12929   0.00383   0.01390   0.26553
  31        4PY        -0.12338  -0.07528   0.00738   0.02578   0.41982
  32        4PZ         0.00543   0.00025   0.26732   0.69595  -0.01953
  33 5   H  1S         -0.07445  -0.12566   0.00028  -0.00433  -0.01232
  34        2S         -0.10147  -0.19602   0.00237  -0.00726  -0.03835
  35        3S         -0.03786  -0.09231   0.00133  -0.01901  -0.83491
  36 6   H  1S         -0.07946   0.12530   0.00020  -0.00434  -0.01523
  37        2S         -0.10867   0.19603   0.00225  -0.00720  -0.04585
  38        3S         -0.04071   0.09220   0.00126  -0.01907  -0.88879
                          11        12        13        14        15
                           V         V         V         V         V
     Eigenvalues --     0.16491   0.17037   0.24088   0.37286   0.39359
   1 1   C  1S          0.00112  -0.04571  -0.00009   0.00912   0.00065
   2        2S          0.00181  -0.07449  -0.00014   0.01226   0.00109
   3        2PX         0.09672  -0.02012   0.09980  -0.03529  -0.02325
   4        2PY        -0.05305  -0.03698  -0.05725  -0.06442   0.00915
   5        2PZ         0.00021  -0.00732   0.00008  -0.00515  -0.00020
   6        3S         -0.00395   0.16839   0.00027   0.03515  -0.00289
   7        3PX         0.13837  -0.01145   0.10531  -0.04337  -0.10626
   8        3PY        -0.07690  -0.02373  -0.06092  -0.08259   0.04788
   9        3PZ         0.00030  -0.01017   0.00004  -0.01072  -0.00041
  10        4S         -0.04809   1.44859   0.00142  -2.50949  -0.12022
  11        4PX         0.58534  -0.11999   1.17464  -1.53901  -0.52207
  12        4PY        -0.31433  -0.20624  -0.66471  -2.69399   0.18245
  13        4PZ         0.00138  -0.04802   0.00138  -0.04628  -0.00240
  14 2   H  1S         -0.02873  -0.02532   0.01442  -0.05920   0.07444
  15        2S         -0.08090  -0.01723  -0.02270  -0.67227   0.75754
  16        3S         -1.03481  -1.01385  -1.55787  -0.30451  -0.29883
  17 3   H  1S          0.02868  -0.02480  -0.01603  -0.05343  -0.07645
  18        2S          0.08102  -0.02016   0.01831  -0.62936  -0.76856
  19        3S          1.09760  -1.01917   1.56887  -0.35907   0.25061
  20 4   C  1S          0.00094   0.04199   0.00003  -0.02013   0.00008
  21        2S          0.00149   0.06836   0.00003  -0.03319   0.00031
  22        2PX         0.10161  -0.02225  -0.10031  -0.04098  -0.03059
  23        2PY        -0.06151  -0.03803   0.05743  -0.07192   0.01596
  24        2PZ         0.00021   0.00703  -0.00009   0.00358   0.00022
  25        3S         -0.00288  -0.15139   0.00030   0.04695  -0.00563
  26        3PX         0.14586  -0.01713  -0.11418  -0.09466  -0.10694
  27        3PY        -0.08744  -0.02806   0.06468  -0.16811   0.06267
  28        3PZ         0.00030   0.00966  -0.00007   0.00411   0.00033
  29        4S         -0.04661  -1.33145  -0.00620   3.25835   0.11857
  30        4PX         0.53724  -0.11037  -1.11882  -1.13799  -0.53385
  31        4PY        -0.32929  -0.20025   0.65499  -1.97949   0.15127
  32        4PZ         0.00124   0.04591  -0.00142   0.03861   0.00183
  33 5   H  1S          0.03136   0.02461   0.00540   0.00658  -0.08277
  34        2S          0.06725   0.02217  -0.03587   0.02402  -0.81688
  35        3S          1.07238   0.94147  -1.51759   0.45016   0.48156
  36 6   H  1S         -0.03140   0.02504  -0.00439   0.00352   0.08693
  37        2S         -0.06741   0.01955   0.03604  -0.00333   0.88020
  38        3S         -1.01091   0.93253   1.51531   0.46045  -0.46654
                          16        17        18        19        20
                           V         V         V         V         V
     Eigenvalues --     0.40014   0.46417   0.48932   0.49381   0.59113
   1 1   C  1S         -0.01890   0.01304  -0.04604  -0.00130  -0.00060
   2        2S         -0.03306   0.02987  -0.07684  -0.00187  -0.00107
   3        2PX         0.02856  -0.06078   0.01000   0.00155   0.00221
   4        2PY         0.05229  -0.10692   0.01444   0.00218   0.00340
   5        2PZ         0.00052  -0.00056   0.00870  -0.15151  -0.19254
   6        3S          0.07387  -0.33754   0.08489  -0.00871  -0.00090
   7        3PX         0.10615  -0.23711  -0.04054  -0.00021   0.00747
   8        3PY         0.19769  -0.41589  -0.07622  -0.00217   0.01133
   9        3PZ        -0.00376  -0.00498   0.03807  -0.62711  -0.68519
  10        4S          2.82103   0.10480   3.10963   0.16283   0.07747
  11        4PX         0.31659   0.23230   0.82766   0.04917   0.02240
  12        4PY         0.56970   0.41531   1.41393   0.08667   0.04279
  13        4PZ        -0.00162   0.00215  -0.11219   0.68209   1.24088
  14 2   H  1S         -0.02535  -0.03323  -0.07566  -0.00444  -0.00182
  15        2S         -0.52604  -0.32245  -0.91342  -0.04642  -0.01343
  16        3S          0.32892   0.05810   0.62973   0.04619   0.02565
  17 3   H  1S         -0.03106  -0.03376  -0.07464  -0.00436  -0.00183
  18        2S         -0.57317  -0.32524  -0.88810  -0.04532  -0.01353
  19        3S          0.33782   0.05845   0.61679   0.04545   0.02535
  20 4   C  1S          0.00021  -0.00359   0.05088   0.00439   0.00079
  21        2S         -0.00328   0.00155   0.08873   0.00788   0.00148
  22        2PX         0.01026   0.05477   0.02916   0.00078   0.00228
  23        2PY         0.01881   0.09325   0.05025   0.00100   0.00435
  24        2PZ        -0.00417  -0.00207   0.00873  -0.15257   0.19221
  25        3S          0.07884  -0.28170  -0.23806  -0.02841  -0.00303
  26        3PX        -0.04005   0.23560   0.06286   0.00179   0.00794
  27        3PY        -0.06199   0.40497   0.10555   0.00150   0.01520
  28        3PZ        -0.01160  -0.00838   0.03354  -0.63101   0.68219
  29        4S         -1.02754   0.80505  -3.09025  -0.18602  -0.06772
  30        4PX         1.32114  -0.33187   0.59415   0.02835   0.02518
  31        4PY         2.35253  -0.57362   1.02448   0.04919   0.03935
  32        4PZ        -0.03749  -0.01844   0.02466   0.69565  -1.23744
  33 5   H  1S         -0.04530  -0.06475   0.06372   0.00395   0.00176
  34        2S         -0.83105  -0.66511   0.80462   0.05588   0.00738
  35        3S         -0.22662   0.27685  -0.54536  -0.02257  -0.02511
  36 6   H  1S         -0.04006  -0.06521   0.06245   0.00387   0.00172
  37        2S         -0.76561  -0.67202   0.79387   0.05479   0.00656
  38        3S         -0.24178   0.29317  -0.54694  -0.02299  -0.02515
                          21        22        23        24        25
                           V         V         V         V         V
     Eigenvalues --     0.66575   0.69199   0.77281   0.77604   0.84100
   1 1   C  1S          0.00058  -0.00061   0.04871   0.07466   0.00102
   2        2S          0.00123  -0.00127   0.10275   0.15914   0.00238
   3        2PX        -0.13006   0.20039  -0.02963   0.11181  -0.00794
   4        2PY         0.07529  -0.11908  -0.05015   0.18439   0.01314
   5        2PZ        -0.00015   0.00019   0.00058   0.00534   0.00008
   6        3S         -0.01071   0.01273  -0.68203  -1.36954  -0.02749
   7        3PX        -0.60726   0.70655  -0.19103   0.43469  -0.22000
   8        3PY         0.34852  -0.42058  -0.32381   0.70590   0.16046
   9        3PZ        -0.00075   0.00071   0.00229   0.01862   0.00008
  10        4S          0.01750  -0.02790   0.62994   2.47683   0.06604
  11        4PX         1.07742  -0.79855   0.19485  -0.74564   4.54630
  12        4PY        -0.61664   0.50058   0.23055  -0.99940  -2.55420
  13        4PZ         0.00097   0.00073   0.01193  -0.06005   0.00641
  14 2   H  1S          0.02304  -0.05912   0.00897   0.03310  -0.02684
  15        2S          0.12892  -0.64638   0.07161   0.10202  -1.58614
  16        3S         -1.02956   1.12689  -0.06601  -1.11275  -1.23943
  17 3   H  1S         -0.02230   0.05845   0.00920   0.03337   0.03052
  18        2S         -0.14044   0.66100   0.10088   0.06090   1.61792
  19        3S          1.02283  -1.08504  -0.03985  -1.24128   1.23208
  20 4   C  1S          0.00080  -0.00013   0.08318   0.03390   0.00050
  21        2S          0.00166  -0.00025   0.17709   0.07143   0.00094
  22        2PX        -0.15371  -0.18264  -0.09901   0.04964   0.01015
  23        2PY         0.08861   0.10228  -0.17691   0.09058   0.00164
  24        2PZ        -0.00017  -0.00020   0.00559  -0.00102  -0.00011
  25        3S         -0.01265  -0.00108  -1.48372  -0.42539  -0.00039
  26        3PX        -0.69121  -0.61614  -0.36331   0.26781   0.23484
  27        3PY         0.40065   0.34253  -0.65513   0.48878  -0.09855
  28        3PZ        -0.00083  -0.00066   0.01980  -0.00400  -0.00006
  29        4S          0.00887   0.00705   2.68827   0.21134  -0.07960
  30        4PX         1.29173   0.75069   0.52378  -0.22942  -4.12923
  31        4PY        -0.74766  -0.39570   1.03849  -0.64803   2.39877
  32        4PZ         0.00154  -0.00057  -0.05765   0.02630  -0.00574
  33 5   H  1S         -0.02597  -0.05435   0.03433   0.00426  -0.02312
  34        2S         -0.15066  -0.54453   0.06814   0.08098  -1.40280
  35        3S          1.13005   0.96506  -1.16852   0.26184  -1.08713
  36 6   H  1S          0.02658   0.05459   0.03402   0.00441   0.02252
  37        2S          0.14640   0.52949   0.08070   0.02093   1.39357
  38        3S         -1.13163  -0.99220  -1.10369   0.19186   1.10313
                          26        27        28        29        30
                           V         V         V         V         V
     Eigenvalues --     0.95218   2.23104   2.29059   2.33325   2.40674
   1 1   C  1S          0.09594  -0.01026  -0.01475   0.00022  -0.00035
   2        2S          0.19941   0.00133  -0.01484   0.00049  -0.00047
   3        2PX        -0.09141  -0.07509  -0.13176   0.34716  -0.40972
   4        2PY        -0.15812  -0.14197  -0.23026  -0.19688   0.22828
   5        2PZ         0.00028  -0.01480  -0.02018   0.00028  -0.00093
   6        3S         -1.54504  -0.18588  -0.03704  -0.00002  -0.00340
   7        3PX        -0.23342   0.07041   0.20858  -0.41471   0.57213
   8        3PY        -0.39855   0.14410   0.37431   0.23687  -0.31899
   9        3PZ        -0.00261   0.01478   0.02504  -0.00022   0.00109
  10        4S          5.71720  -0.10931  -0.88938  -0.00459   0.00203
  11        4PX         1.19900   0.05045  -0.18669  -0.06005   0.98887
  12        4PY         1.99443   0.07500  -0.35741   0.02458  -0.53993
  13        4PZ        -0.02148   0.00341   0.00933  -0.00021   0.00198
  14 2   H  1S          0.01499  -0.70729  -0.79670  -0.70447   0.65492
  15        2S         -0.28490   1.00564   1.19214   1.09189  -1.46731
  16        3S         -0.09927  -0.29711  -0.47400  -0.46305   0.36347
  17 3   H  1S          0.01549  -0.69456  -0.79884   0.69727  -0.67287
  18        2S         -0.26124   0.98648   1.20190  -1.08266   1.50390
  19        3S         -0.07755  -0.27822  -0.46078   0.45393  -0.35615
  20 4   C  1S         -0.09384  -0.01046   0.01224   0.00038   0.00017
  21        2S         -0.19463  -0.00015   0.01229   0.00040   0.00047
  22        2PX        -0.09240   0.13754  -0.12372   0.30212   0.41470
  23        2PY        -0.15976   0.23883  -0.20434  -0.17620  -0.24195
  24        2PZ         0.00042  -0.01596   0.01926   0.00065   0.00047
  25        3S          1.50379  -0.16643   0.01759   0.00148  -0.00115
  26        3PX        -0.22795  -0.17556   0.21112  -0.37758  -0.58027
  27        3PY        -0.39764  -0.30207   0.34644   0.21863   0.34066
  28        3PZ         0.00413   0.01717  -0.02459  -0.00074  -0.00067
  29        4S         -5.69040  -0.17495   0.89125   0.01552  -0.01604
  30        4PX         1.10736  -0.01634  -0.19938   0.11346  -0.84621
  31        4PY         1.98115  -0.03109  -0.31274  -0.06565   0.50409
  32        4PZ         0.01281   0.00516  -0.00696   0.00002  -0.00172
  33 5   H  1S         -0.01796  -0.79005   0.67168   0.70984   0.68386
  34        2S          0.29340   1.14897  -1.02879  -1.02809  -1.45065
  35        3S          0.05774  -0.35791   0.39718   0.51490   0.42837
  36 6   H  1S         -0.01793  -0.78737   0.69115  -0.69161  -0.68613
  37        2S          0.31186   1.14385  -1.05040   0.99956   1.44857
  38        3S          0.07046  -0.35767   0.42330  -0.50805  -0.43593
                          31        32        33        34        35
                           V         V         V         V         V
     Eigenvalues --     2.67136   2.81744   2.87836   2.95140   3.14136
   1 1   C  1S          0.00056   0.00278  -0.01318  -0.00014  -0.00983
   2        2S          0.00046   0.00799  -0.04359  -0.00060  -0.03006
   3        2PX         0.00595   0.07988  -0.46855  -0.72407   0.44693
   4        2PY         0.00832   0.14148  -0.85738   0.40688   0.77529
   5        2PZ        -0.92393  -0.92811  -0.15269  -0.00178   0.00686
   6        3S         -0.00195  -0.06592   0.38242   0.00681   0.25217
   7        3PX        -0.00456  -0.13813   0.82867   0.87393  -0.42741
   8        3PY        -0.00600  -0.24255   1.48676  -0.47643  -0.73884
   9        3PZ         0.93891   1.13430   0.19149   0.00233  -0.00895
  10        4S          0.01473   0.15426  -0.86837  -0.01713  -0.49393
  11        4PX        -0.00206   0.11052  -0.70850  -0.66888   0.21371
  12        4PY        -0.00314   0.19518  -1.26756   0.35248   0.36306
  13        4PZ        -0.33793  -0.61361  -0.12121  -0.00179   0.00525
  14 2   H  1S          0.01323  -0.02056   0.25852  -0.37164  -0.21081
  15        2S         -0.01494   0.01198  -0.21163   0.38317   0.15892
  16        3S         -0.00351   0.04608  -0.30475   0.27767   0.05301
  17 3   H  1S          0.01352  -0.02038   0.25073   0.37342  -0.21363
  18        2S         -0.01566   0.01106  -0.19987  -0.38160   0.16146
  19        3S         -0.00377   0.04521  -0.29807  -0.29255   0.06416
  20 4   C  1S          0.00055  -0.00270   0.01349   0.00042  -0.00721
  21        2S          0.00052  -0.00844   0.04783   0.00103  -0.02249
  22        2PX        -0.00776   0.07065  -0.40373  -0.81309  -0.50471
  23        2PY        -0.01511   0.12558  -0.71410   0.44577  -0.89982
  24        2PZ        -0.92544   0.92578   0.15617   0.00022   0.01496
  25        3S         -0.00292   0.07271  -0.43149  -0.00787   0.19350
  26        3PX         0.00798  -0.12931   0.76573   0.97006   0.54434
  27        3PY         0.01536  -0.22791   1.34451  -0.52336   0.97881
  28        3PZ         0.94105  -1.13174  -0.19698  -0.00032  -0.01884
  29        4S          0.01675  -0.15740   0.90032   0.02434  -0.36790
  30        4PX        -0.00058   0.11082  -0.70722  -0.70351  -0.33385
  31        4PY        -0.00229   0.19313  -1.23406   0.37563  -0.60685
  32        4PZ        -0.33903   0.61206   0.12592   0.00020   0.01483
  33 5   H  1S          0.01254   0.03080  -0.29713   0.41930  -0.26921
  34        2S         -0.01549  -0.02542   0.27378  -0.43045   0.21270
  35        3S         -0.00138  -0.04128   0.27846  -0.24237   0.13139
  36 6   H  1S          0.01267   0.03040  -0.28960  -0.43278  -0.25455
  37        2S         -0.01604  -0.02556   0.26819   0.44249   0.19980
  38        3S         -0.00113  -0.04044   0.26991   0.24719   0.12132
                          36        37        38
                           V         V         V
     Eigenvalues --     3.31981  23.35281  23.70640
   1 1   C  1S         -0.00013  -1.41240  -1.45386
   2        2S         -0.00014   1.50632   1.57219
   3        2PX         0.79191  -0.00647   0.01217
   4        2PY        -0.43976  -0.01079   0.02111
   5        2PZ         0.00138  -0.00061  -0.00029
   6        3S         -0.00249  -0.29585  -0.39997
   7        3PX        -1.13281   0.02386  -0.05582
   8        3PY         0.62472   0.04019  -0.09662
   9        3PZ        -0.00208   0.00172   0.00087
  10        4S          0.01192   0.27436   0.76948
  11        4PX         1.98525  -0.02553   0.13426
  12        4PY        -1.08955  -0.04427   0.22903
  13        4PZ         0.00357  -0.00289  -0.00349
  14 2   H  1S          0.56736   0.01365   0.00788
  15        2S         -0.88017   0.00716  -0.01546
  16        3S         -0.46885  -0.08468  -0.04031
  17 3   H  1S         -0.57600   0.01482   0.00833
  18        2S          0.89315   0.00735  -0.01467
  19        3S          0.49223  -0.08624  -0.03942
  20 4   C  1S         -0.00010  -1.44906   1.41714
  21        2S         -0.00046   1.54552  -1.53257
  22        2PX        -0.70349   0.00612   0.01256
  23        2PY         0.40583   0.01084   0.02159
  24        2PZ        -0.00114  -0.00060   0.00014
  25        3S          0.00598  -0.30340   0.39003
  26        3PX         1.00189  -0.02244  -0.05634
  27        3PY        -0.58699  -0.03953  -0.09733
  28        3PZ         0.00172   0.00173  -0.00032
  29        4S         -0.03341   0.28006  -0.75985
  30        4PX        -1.75820   0.02367   0.12998
  31        4PY         1.04349   0.04254   0.22722
  32        4PZ        -0.00308  -0.00279   0.00230
  33 5   H  1S          0.47897   0.01312  -0.00435
  34        2S         -0.74572   0.00833   0.01337
  35        3S         -0.42785  -0.08285   0.03675
  36 6   H  1S         -0.47608   0.01226  -0.00383
  37        2S          0.74236   0.00890   0.01364
  38        3S          0.41791  -0.08139   0.03722
     Density Matrix:
                           1         2         3         4         5
   1 1   C  1S          0.65940
   2        2S          0.56151   0.49201
   3        2PX        -0.00053  -0.00070   0.08443
   4        2PY        -0.00118  -0.00162   0.00349   0.08795
   5        2PZ         0.00010   0.00015  -0.00013  -0.00030   0.06442
   6        3S         -0.08890  -0.15381   0.00270   0.00588  -0.00021
   7        3PX         0.00085   0.00131   0.13073   0.00099  -0.00010
   8        3PY         0.00127   0.00196   0.00105   0.13139  -0.00027
   9        3PZ         0.00019   0.00032  -0.00023  -0.00048   0.10364
  10        4S         -0.07927  -0.11411  -0.01591  -0.02804   0.00060
  11        4PX         0.00030   0.00166   0.07006  -0.00441  -0.00065
  12        4PY         0.00061   0.00300  -0.00452   0.06540  -0.00114
  13        4PZ        -0.00013  -0.00031  -0.00091  -0.00154   0.09584
  14 2   H  1S         -0.02072  -0.03299   0.03515  -0.06319  -0.00132
  15        2S         -0.02296  -0.03672   0.04917  -0.08781  -0.00098
  16        3S          0.00057  -0.00073   0.02048  -0.03297  -0.00002
  17 3   H  1S         -0.02109  -0.03356  -0.07277  -0.00212  -0.00148
  18        2S         -0.02326  -0.03714  -0.10039  -0.00241  -0.00117
  19        3S          0.00059  -0.00070  -0.03827   0.00102  -0.00009
  20 4   C  1S          0.00607   0.00978  -0.01084  -0.01889  -0.00044
  21        2S          0.00974   0.01523  -0.01734  -0.03024  -0.00072
  22        2PX         0.01037   0.01658  -0.01248  -0.03222   0.00051
  23        2PY         0.01796   0.02871  -0.03208  -0.04976   0.00101
  24        2PZ        -0.00055  -0.00089  -0.00043  -0.00063   0.06430
  25        3S         -0.02620  -0.03979   0.04860   0.08491   0.00218
  26        3PX         0.01597   0.02475  -0.01829  -0.04599   0.00065
  27        3PY         0.02765   0.04284  -0.04559  -0.07144   0.00133
  28        3PZ        -0.00093  -0.00149  -0.00075  -0.00111   0.10290
  29        4S          0.00536   0.00394   0.02101   0.03718   0.00274
  30        4PX         0.00306   0.00633  -0.01317  -0.02119   0.00070
  31        4PY         0.00521   0.01085  -0.02116  -0.03752   0.00147
  32        4PZ        -0.00079  -0.00127  -0.00117  -0.00186   0.09595
  33 5   H  1S          0.00417   0.00684  -0.00168  -0.01248  -0.00051
  34        2S          0.00621   0.01031   0.00366  -0.02510   0.00000
  35        3S          0.00317   0.00462   0.00438  -0.01756   0.00012
  36 6   H  1S          0.00415   0.00682  -0.00992  -0.00763  -0.00053
  37        2S          0.00622   0.01035  -0.02343  -0.00934  -0.00004
  38        3S          0.00316   0.00464  -0.01725  -0.00506   0.00008
                           6         7         8         9        10
   6        3S          0.45246
   7        3PX        -0.00165   0.20273
   8        3PY        -0.00183  -0.00485   0.19676
   9        3PZ        -0.00063  -0.00018  -0.00043   0.16673
  10        4S          0.27269  -0.02676  -0.04778   0.00078   0.18148
  11        4PX        -0.00710   0.10899  -0.00998  -0.00106  -0.01567
  12        4PY        -0.01238  -0.01021   0.09834  -0.00183  -0.02860
  13        4PZ         0.00134  -0.00121  -0.00204   0.15419   0.00235
  14 2   H  1S          0.08818   0.05666  -0.09845  -0.00219   0.06921
  15        2S          0.09832   0.07964  -0.13631  -0.00166   0.08135
  16        3S          0.00617   0.03350  -0.05057  -0.00004   0.01110
  17 3   H  1S          0.08978  -0.11394  -0.00166  -0.00243   0.06951
  18        2S          0.09946  -0.15702  -0.00087  -0.00193   0.08078
  19        3S          0.00618  -0.05962   0.00337  -0.00014   0.01042
  20 4   C  1S         -0.02652  -0.01695  -0.02952  -0.00075   0.00510
  21        2S         -0.04012  -0.02633  -0.04592  -0.00122   0.00382
  22        2PX        -0.04643  -0.01777  -0.04573   0.00088  -0.01754
  23        2PY        -0.08033  -0.04551  -0.07080   0.00172  -0.02999
  24        2PZ         0.00265  -0.00059  -0.00083   0.10344   0.00268
  25        3S          0.10205   0.07143   0.12491   0.00365   0.00103
  26        3PX        -0.06699  -0.02619  -0.06511   0.00113  -0.02600
  27        3PY        -0.11586  -0.06448  -0.10158   0.00229  -0.04441
  28        3PZ         0.00439  -0.00104  -0.00150   0.16554   0.00446
  29        4S          0.00202   0.03184   0.05648   0.00456  -0.03213
  30        4PX        -0.02244  -0.01967  -0.02981   0.00117  -0.00631
  31        4PY        -0.03862  -0.02976  -0.05403   0.00243  -0.01031
  32        4PZ         0.00373  -0.00165  -0.00258   0.15436   0.00414
  33 5   H  1S         -0.02032  -0.00056  -0.01776  -0.00074  -0.01444
  34        2S         -0.03078   0.00887  -0.03671   0.00010  -0.01868
  35        3S         -0.01184   0.00833  -0.02633   0.00021  -0.00327
  36 6   H  1S         -0.02026  -0.01497  -0.00924  -0.00077  -0.01481
  37        2S         -0.03095  -0.03591  -0.01054   0.00005  -0.01958
  38        3S         -0.01197  -0.02668  -0.00602   0.00016  -0.00379
                          11        12        13        14        15
  11        4PX         0.05963
  12        4PY        -0.00880   0.05069
  13        4PZ        -0.00153  -0.00256   0.14263
  14 2   H  1S          0.03344  -0.05391  -0.00113   0.08165
  15        2S          0.04787  -0.07450  -0.00039   0.10962   0.14923
  16        3S          0.02066  -0.02750   0.00024   0.03652   0.05195
  17 3   H  1S         -0.06292   0.00162  -0.00124  -0.01324  -0.02456
  18        2S         -0.08707   0.00391  -0.00052  -0.02455  -0.04224
  19        3S         -0.03331   0.00423   0.00020  -0.01791  -0.02694
  20 4   C  1S         -0.00320  -0.00579  -0.00067   0.00425   0.00679
  21        2S         -0.00660  -0.01182  -0.00108   0.00703   0.01134
  22        2PX        -0.01326  -0.01985   0.00120   0.00182  -0.00261
  23        2PY        -0.01981  -0.03678   0.00228   0.01132   0.02409
  24        2PZ        -0.00087  -0.00135   0.09567  -0.00064  -0.00021
  25        3S          0.02330   0.04155   0.00317  -0.02120  -0.03417
  26        3PX        -0.02035  -0.02811   0.00162   0.00109  -0.00694
  27        3PY        -0.02793  -0.05367   0.00313   0.01698   0.03625
  28        3PZ        -0.00144  -0.00223   0.15311  -0.00094  -0.00022
  29        4S          0.00842   0.01571   0.00415  -0.01805  -0.02480
  30        4PX        -0.01486  -0.01240   0.00144  -0.00155  -0.00820
  31        4PY        -0.01250  -0.02959   0.00286   0.01516   0.02704
  32        4PZ        -0.00172  -0.00276   0.14279  -0.00053   0.00029
  33 5   H  1S          0.00214  -0.01589  -0.00037   0.01121   0.02322
  34        2S          0.00944  -0.02763   0.00053   0.02387   0.04435
  35        3S          0.00766  -0.01586   0.00037   0.01675   0.02793
  36 6   H  1S         -0.01452  -0.00565  -0.00038  -0.00917  -0.01824
  37        2S         -0.02811  -0.00498   0.00050  -0.01899  -0.03436
  38        3S         -0.01721  -0.00106   0.00034  -0.01027  -0.01779
                          16        17        18        19        20
  16        3S          0.02070
  17 3   H  1S         -0.01795   0.08245
  18        2S         -0.02693   0.10970   0.14804
  19        3S         -0.01261   0.03600   0.05084   0.02008
  20 4   C  1S          0.00376   0.00429   0.00673   0.00373   0.65948
  21        2S          0.00556   0.00709   0.01122   0.00547   0.56158
  22        2PX        -0.00337   0.00899   0.02222   0.01673   0.00117
  23        2PY         0.01760   0.00740   0.00972   0.00569   0.00187
  24        2PZ         0.00003  -0.00063  -0.00015   0.00007   0.00009
  25        3S         -0.01445  -0.02126  -0.03365  -0.01407  -0.08929
  26        3PX        -0.00676   0.01427   0.03492   0.02609  -0.00052
  27        3PY         0.02656   0.00950   0.01182   0.00709  -0.00103
  28        3PZ         0.00007  -0.00092  -0.00013   0.00013   0.00020
  29        4S         -0.00610  -0.01769  -0.02381  -0.00555  -0.08015
  30        4PX        -0.00688   0.01410   0.02771   0.01713  -0.00017
  31        4PY         0.01591   0.00661   0.00673   0.00202  -0.00019
  32        4PZ         0.00030  -0.00052   0.00035   0.00033  -0.00004
  33 5   H  1S          0.01610  -0.00903  -0.01804  -0.00937  -0.02007
  34        2S          0.02729  -0.01869  -0.03389  -0.01691  -0.02210
  35        3S          0.01462  -0.01015  -0.01759  -0.00899   0.00060
  36 6   H  1S         -0.00949   0.01121   0.02321   0.01592  -0.01988
  37        2S         -0.01718   0.02378   0.04416   0.02699  -0.02207
  38        3S         -0.00911   0.01664   0.02767   0.01442   0.00052
                          21        22        23        24        25
  21        2S          0.49209
  22        2PX         0.00168   0.08276
  23        2PY         0.00268   0.00375   0.08758
  24        2PZ         0.00014   0.00016   0.00021   0.06421
  25        3S         -0.15430  -0.00540  -0.00868  -0.00018   0.45384
  26        3PX        -0.00078   0.12862   0.00200   0.00009  -0.00008
  27        3PY        -0.00156   0.00200   0.13138   0.00008   0.00054
  28        3PZ         0.00033   0.00024   0.00034   0.10277  -0.00067
  29        4S         -0.11581   0.01342   0.02289   0.00075   0.27855
  30        4PX        -0.00139   0.07337  -0.00519   0.00049   0.00597
  31        4PY        -0.00224  -0.00512   0.06736   0.00091   0.00992
  32        4PZ        -0.00014   0.00088   0.00158   0.09581   0.00083
  33 5   H  1S         -0.03196  -0.03323   0.06365  -0.00144   0.08547
  34        2S         -0.03532  -0.04968   0.08852  -0.00114   0.09447
  35        3S         -0.00060  -0.02280   0.03354  -0.00012   0.00557
  36 6   H  1S         -0.03169   0.07131   0.00266  -0.00129   0.08474
  37        2S         -0.03528   0.10140   0.00068  -0.00094   0.09439
  38        3S         -0.00071   0.04061  -0.00324  -0.00004   0.00585
                          26        27        28        29        30
  26        3PX         0.20023
  27        3PY        -0.00243   0.19766
  28        3PZ         0.00013   0.00011   0.16448
  29        4S          0.02484   0.04215   0.00094   0.18641
  30        4PX         0.11466  -0.01079   0.00077   0.01511   0.06676
  31        4PY        -0.01068   0.10189   0.00145   0.02501  -0.01055
  32        4PZ         0.00111   0.00202   0.15334   0.00224   0.00123
  33 5   H  1S         -0.05307   0.09981  -0.00237   0.06693  -0.03448
  34        2S         -0.07976   0.13833  -0.00191   0.07713  -0.05221
  35        3S         -0.03705   0.05175  -0.00019   0.00922  -0.02437
  36 6   H  1S          0.11256   0.00341  -0.00215   0.06704   0.06591
  37        2S          0.15986  -0.00068  -0.00159   0.07807   0.09410
  38        3S          0.06371  -0.00657  -0.00007   0.00988   0.03788
                          31        32        33        34        35
  31        4PY         0.05405
  32        4PZ         0.00236   0.14299
  33 5   H  1S          0.05602  -0.00123   0.08076
  34        2S          0.07778  -0.00053   0.10999   0.15228
  35        3S          0.02923   0.00017   0.03815   0.05541   0.02301
  36 6   H  1S         -0.00201  -0.00112  -0.01239  -0.02614  -0.02014
  37        2S         -0.00651  -0.00038  -0.02619  -0.04868  -0.03196
  38        3S         -0.00654   0.00023  -0.02023  -0.03199  -0.01583
                          36        37        38
  36 6   H  1S          0.08018
  37        2S          0.10982   0.15284
  38        3S          0.03834   0.05590   0.02325
    Full Mulliken population analysis:
                           1         2         3         4         5
   1 1   C  1S          0.65940
   2        2S          0.49326   0.49201
   3        2PX         0.00000   0.00000   0.08443
   4        2PY         0.00000   0.00000   0.00000   0.08795
   5        2PZ         0.00000   0.00000   0.00000   0.00000   0.06442
   6        3S         -0.02927  -0.06442   0.00000   0.00000   0.00000
   7        3PX         0.00000   0.00000   0.08224   0.00000   0.00000
   8        3PY         0.00000   0.00000   0.00000   0.08266   0.00000
   9        3PZ         0.00000   0.00000   0.00000   0.00000   0.06520
  10        4S         -0.01219  -0.02135   0.00000   0.00000   0.00000
  11        4PX         0.00000   0.00000   0.01543   0.00000   0.00000
  12        4PY         0.00000   0.00000   0.00000   0.01440   0.00000
  13        4PZ         0.00000   0.00000   0.00000   0.00000   0.02111
  14 2   H  1S         -0.00024  -0.00034   0.00189   0.00569   0.00000
  15        2S         -0.00169  -0.00323   0.00440   0.01319   0.00001
  16        3S          0.00005  -0.00007   0.00070   0.00189   0.00000
  17 3   H  1S         -0.00026  -0.00037   0.00791   0.00000   0.00001
  18        2S         -0.00174  -0.00334   0.01772   0.00000   0.00001
  19        3S          0.00005  -0.00007   0.00255  -0.00000   0.00000
  20 4   C  1S          0.00000   0.00000  -0.00002  -0.00006   0.00000
  21        2S          0.00000  -0.00000  -0.00002  -0.00005   0.00000
  22        2PX        -0.00002  -0.00002   0.00011   0.00086   0.00000
  23        2PY        -0.00006  -0.00005   0.00085   0.00197   0.00000
  24        2PZ        -0.00000  -0.00000  -0.00000  -0.00000   0.00042
  25        3S         -0.00059  -0.00099   0.00254   0.00768  -0.00000
  26        3PX        -0.00054  -0.00099   0.00019   0.00556   0.00000
  27        3PY        -0.00162  -0.00297   0.00551   0.01072   0.00000
  28        3PZ        -0.00000  -0.00000  -0.00000  -0.00000   0.00611
  29        4S          0.00034   0.00030   0.00095   0.00292  -0.00000
  30        4PX        -0.00018  -0.00045  -0.00071   0.00147   0.00000
  31        4PY        -0.00053  -0.00133   0.00147   0.00097   0.00000
  32        4PZ        -0.00000  -0.00000  -0.00000  -0.00000   0.00903
  33 5   H  1S          0.00000   0.00000  -0.00000  -0.00000   0.00000
  34        2S          0.00001   0.00002   0.00000  -0.00031  -0.00000
  35        3S          0.00007   0.00013   0.00001  -0.00070  -0.00000
  36 6   H  1S          0.00000   0.00000  -0.00000  -0.00000   0.00000
  37        2S          0.00001   0.00002  -0.00024  -0.00007   0.00000
  38        3S          0.00007   0.00013  -0.00057  -0.00011  -0.00000
                           6         7         8         9        10
   6        3S          0.45246
   7        3PX         0.00000   0.20273
   8        3PY         0.00000   0.00000   0.19676
   9        3PZ         0.00000   0.00000   0.00000   0.16673
  10        4S          0.21125   0.00000   0.00000   0.00000   0.18148
  11        4PX         0.00000   0.07122   0.00000   0.00000   0.00000
  12        4PY         0.00000   0.00000   0.06426   0.00000   0.00000
  13        4PZ         0.00000   0.00000   0.00000   0.10076   0.00000
  14 2   H  1S          0.01635   0.01112   0.03243   0.00003   0.01837
  15        2S          0.04161   0.01994   0.05730   0.00003   0.04702
  16        3S          0.00285   0.00399   0.01010   0.00000   0.00839
  17 3   H  1S          0.01702   0.04432   0.00000   0.00003   0.01860
  18        2S          0.04261   0.07720   0.00000   0.00003   0.04699
  19        3S          0.00287   0.01383  -0.00000   0.00000   0.00791
  20 4   C  1S         -0.00060  -0.00057  -0.00173   0.00000   0.00032
  21        2S         -0.00100  -0.00105  -0.00318   0.00000   0.00029
  22        2PX         0.00242   0.00019   0.00553   0.00000   0.00080
  23        2PY         0.00726   0.00550   0.01063   0.00000   0.00236
  24        2PZ         0.00000  -0.00000  -0.00000   0.00614   0.00000
  25        3S          0.02176   0.01339   0.04055  -0.00000   0.00039
  26        3PX         0.01256  -0.00127   0.01858   0.00000   0.00401
  27        3PY         0.03762   0.01840   0.02855   0.00000   0.01186
  28        3PZ         0.00000  -0.00000  -0.00000   0.03530   0.00000
  29        4S          0.00077   0.00491   0.01508  -0.00000  -0.02017
  30        4PX         0.00630  -0.00404   0.00590   0.00000   0.00191
  31        4PY         0.01879   0.00589   0.00126   0.00000   0.00541
  32        4PZ         0.00000  -0.00000  -0.00000   0.04933   0.00000
  33 5   H  1S         -0.00005  -0.00000  -0.00018   0.00000  -0.00077
  34        2S         -0.00117   0.00007  -0.00318  -0.00000  -0.00311
  35        3S         -0.00192   0.00011  -0.00422  -0.00000  -0.00117
  36 6   H  1S         -0.00005  -0.00013  -0.00005   0.00000  -0.00078
  37        2S         -0.00117  -0.00255  -0.00052  -0.00000  -0.00324
  38        3S         -0.00193  -0.00352  -0.00055  -0.00000  -0.00136
                          11        12        13        14        15
  11        4PX         0.05963
  12        4PY         0.00000   0.05069
  13        4PZ         0.00000   0.00000   0.14263
  14 2   H  1S          0.00641   0.01734   0.00001   0.08165
  15        2S          0.01542   0.04030   0.00001   0.07743   0.14923
  16        3S          0.00521   0.01165  -0.00000   0.01365   0.04099
  17 3   H  1S          0.02357  -0.00000   0.00002  -0.00001  -0.00064
  18        2S          0.05476  -0.00001   0.00001  -0.00064  -0.00527
  19        3S          0.01636  -0.00001  -0.00000  -0.00199  -0.00783
  20 4   C  1S         -0.00019  -0.00058   0.00000   0.00000   0.00002
  21        2S         -0.00047  -0.00145   0.00000   0.00000   0.00003
  22        2PX        -0.00072   0.00138   0.00000  -0.00000   0.00000
  23        2PY         0.00137   0.00095   0.00000  -0.00000  -0.00037
  24        2PZ        -0.00000  -0.00000   0.00900   0.00000   0.00000
  25        3S          0.00655   0.02021  -0.00000  -0.00007  -0.00154
  26        3PX        -0.00418   0.00556   0.00000  -0.00000   0.00004
  27        3PY         0.00553   0.00125   0.00000  -0.00023  -0.00364
  28        3PZ        -0.00000  -0.00000   0.04893   0.00000   0.00000
  29        4S          0.00255   0.00824  -0.00000  -0.00107  -0.00451
  30        4PX        -0.00716   0.00314   0.00000   0.00001   0.00016
  31        4PY         0.00316  -0.00561   0.00000  -0.00244  -0.01028
  32        4PZ        -0.00000  -0.00000   0.08966   0.00000  -0.00000
  33 5   H  1S          0.00003  -0.00234   0.00000   0.00000   0.00000
  34        2S          0.00029  -0.00986  -0.00000   0.00000   0.00016
  35        3S          0.00030  -0.00730  -0.00000   0.00024   0.00148
  36 6   H  1S         -0.00175  -0.00047   0.00000  -0.00000  -0.00004
  37        2S         -0.00825  -0.00101  -0.00000  -0.00005  -0.00094
  38        3S         -0.00653  -0.00028  -0.00000  -0.00047  -0.00250
                          16        17        18        19        20
  16        3S          0.02070
  17 3   H  1S         -0.00200   0.08245
  18        2S         -0.00783   0.07749   0.14804
  19        3S         -0.00654   0.01345   0.04011   0.02008
  20 4   C  1S          0.00009   0.00000   0.00002   0.00009   0.65948
  21        2S          0.00017   0.00000   0.00003   0.00016   0.49332
  22        2PX         0.00001  -0.00000  -0.00028  -0.00059   0.00000
  23        2PY        -0.00074  -0.00000  -0.00008  -0.00013   0.00000
  24        2PZ        -0.00000   0.00000   0.00000  -0.00000   0.00000
  25        3S         -0.00252  -0.00007  -0.00151  -0.00244  -0.02939
  26        3PX         0.00006  -0.00016  -0.00290  -0.00366   0.00000
  27        3PY        -0.00448  -0.00007  -0.00065  -0.00066   0.00000
  28        3PZ        -0.00000   0.00000   0.00000  -0.00000   0.00000
  29        4S         -0.00231  -0.00105  -0.00431  -0.00210  -0.01232
  30        4PX         0.00017  -0.00188  -0.00877  -0.00676   0.00000
  31        4PY        -0.00753  -0.00058  -0.00141  -0.00053   0.00000
  32        4PZ        -0.00000   0.00000  -0.00000  -0.00000   0.00000
  33 5   H  1S          0.00023  -0.00000  -0.00004  -0.00042  -0.00021
  34        2S          0.00144  -0.00004  -0.00090  -0.00234  -0.00158
  35        3S          0.00247  -0.00046  -0.00243  -0.00286   0.00005
  36 6   H  1S         -0.00044   0.00000   0.00000   0.00022  -0.00020
  37        2S         -0.00241   0.00000   0.00016   0.00142  -0.00156
  38        3S         -0.00293   0.00023   0.00145   0.00243   0.00004
                          21        22        23        24        25
  21        2S          0.49209
  22        2PX         0.00000   0.08276
  23        2PY         0.00000   0.00000   0.08758
  24        2PZ         0.00000   0.00000   0.00000   0.06421
  25        3S         -0.06462   0.00000   0.00000   0.00000   0.45384
  26        3PX         0.00000   0.08092   0.00000   0.00000   0.00000
  27        3PY         0.00000   0.00000   0.08266   0.00000   0.00000
  28        3PZ         0.00000   0.00000   0.00000   0.06465   0.00000
  29        4S         -0.02167   0.00000   0.00000   0.00000   0.21579
  30        4PX         0.00000   0.01616   0.00000   0.00000   0.00000
  31        4PY         0.00000   0.00000   0.01483   0.00000   0.00000
  32        4PZ         0.00000   0.00000   0.00000   0.02110   0.00000
  33 5   H  1S         -0.00030   0.00145   0.00568   0.00000   0.01533
  34        2S         -0.00302   0.00377   0.01369   0.00001   0.03924
  35        3S         -0.00006   0.00067   0.00201   0.00000   0.00255
  36 6   H  1S         -0.00029   0.00690   0.00002   0.00000   0.01496
  37        2S         -0.00298   0.01731   0.00001   0.00000   0.03886
  38        3S         -0.00007   0.00271  -0.00001   0.00000   0.00267
                          26        27        28        29        30
  26        3PX         0.20023
  27        3PY         0.00000   0.19766
  28        3PZ         0.00000   0.00000   0.16448
  29        4S          0.00000   0.00000   0.00000   0.18641
  30        4PX         0.07493   0.00000   0.00000   0.00000   0.06676
  31        4PY         0.00000   0.06658   0.00000   0.00000   0.00000
  32        4PZ         0.00000   0.00000   0.10020   0.00000   0.00000
  33 5   H  1S          0.00876   0.03360   0.00003   0.01755   0.00568
  34        2S          0.01705   0.06031   0.00003   0.04416   0.01450
  35        3S          0.00380   0.01083   0.00000   0.00693   0.00532
  36 6   H  1S          0.04166   0.00008   0.00002   0.01747   0.02457
  37        2S          0.07719  -0.00002   0.00002   0.04449   0.05925
  38        3S          0.01484  -0.00010   0.00000   0.00740   0.01878
                          31        32        33        34        35
  31        4PY         0.05405
  32        4PZ         0.00000   0.14299
  33 5   H  1S          0.01880   0.00002   0.08076
  34        2S          0.04403   0.00001   0.07769   0.15228
  35        3S          0.01301  -0.00000   0.01426   0.04372   0.02301
  36 6   H  1S         -0.00005   0.00001  -0.00001  -0.00081  -0.00238
  37        2S         -0.00026   0.00001  -0.00081  -0.00677  -0.00979
  38        3S         -0.00021  -0.00000  -0.00240  -0.00980  -0.00850
                          36        37        38
  36 6   H  1S          0.08018
  37        2S          0.07757   0.15284
  38        3S          0.01433   0.04410   0.02325
     Gross orbital populations:
                           1
   1 1   C  1S          1.10434
   2        2S          0.88586
   3        2PX         0.22735
   4        2PY         0.23663
   5        2PZ         0.16630
   6        3S          0.79294
   7        3PX         0.56191
   8        3PY         0.55596
   9        3PZ         0.42358
  10        4S          0.50322
  11        4PX         0.25853
  12        4PY         0.21045
  13        4PZ         0.41212
  14 2   H  1S          0.27506
  15        2S          0.46626
  16        3S          0.08499
  17 3   H  1S          0.27752
  18        2S          0.46451
  19        3S          0.08259
  20 4   C  1S          1.10441
  21        2S          0.88584
  22        2PX         0.22231
  23        2PY         0.23593
  24        2PZ         0.16555
  25        3S          0.79256
  26        3PX         0.55224
  27        3PY         0.55673
  28        3PZ         0.41979
  29        4S          0.50674
  30        4PX         0.27504
  31        4PY         0.21748
  32        4PZ         0.41236
  33 5   H  1S          0.27233
  34        2S          0.46962
  35        3S          0.08917
  36 6   H  1S          0.27054
  37        2S          0.47064
  38        3S          0.09060
          Condensed to atoms (all electrons):
               1          2          3          4          5          6
     1  C    5.030438   0.388095   0.388574   0.602236  -0.035245  -0.034894
     2  H    0.388095   0.515717  -0.032754  -0.040992   0.006018  -0.009775
     3  H    0.388574  -0.032754   0.512679  -0.040306  -0.009488   0.005914
     4  C    0.602236  -0.040992  -0.040306   5.058805   0.383704   0.383521
     5  H   -0.035245   0.006018  -0.009488   0.383704   0.527392  -0.041265
     6  H   -0.034894  -0.009775   0.005914   0.383521  -0.041265   0.528283
 Mulliken charges:
               1
     1  C   -0.339204
     2  H    0.173691
     3  H    0.175381
     4  C   -0.346968
     5  H    0.168884
     6  H    0.168217
 Sum of Mulliken charges =   0.00000
 Mulliken charges with hydrogens summed into heavy atoms:
               1
     1  C    0.009868
     4  C   -0.009868
 Electronic spatial extent (au):  <R**2>=             83.6552
 Charge=              0.0000 electrons
 Dipole moment (field-independent basis, Debye):
    X=              0.0076    Y=              0.0214    Z=             -0.1170  Tot=              0.1192
 Quadrupole moment (field-independent basis, Debye-Ang):
   XX=            -12.2042   YY=            -12.2199   ZZ=            -15.6631
   XY=              0.0155   XZ=              0.0010   YZ=             -0.0042
 Traceless Quadrupole moment (field-independent basis, Debye-Ang):
   XX=              1.1582   YY=              1.1425   ZZ=             -2.3007
   XY=              0.0155   XZ=              0.0010   YZ=             -0.0042
 Octapole moment (field-independent basis, Debye-Ang**2):
  XXX=             -0.3710  YYY=             -0.0207  ZZZ=             -0.0550  XYY=              0.2220
  XXY=             -0.0501  XXZ=             -0.1523  XZZ=             -0.0886  YZZ=             -0.0931
  YYZ=             -0.2021  XYZ=             -0.0434
 Hexadecapole moment (field-independent basis, Debye-Ang**3):
 XXXX=            -34.2645 YYYY=            -55.1667 ZZZZ=            -17.8054 XXXY=             -7.2548
 XXXZ=              0.0248 YYYX=            -10.6862 YYYZ=              0.0295 ZZZX=              0.0265
 ZZZY=              0.0547 XXYY=            -16.1738 XXZZ=             -9.9146 YYZZ=            -13.6260
 XXYZ=              0.0139 YYXZ=              0.0005 ZZXY=             -3.2028
 N-N= 3.308770715398D+01 E-N=-2.478905794684D+02  KE= 7.815917001986D+01
 Orbital energies and kinetic energies (alpha):
                                 1                 2
   1         O               -10.290151         15.978487
   2         O               -10.287630         15.979670
   3         O                -0.864021          1.538531
   4         O                -0.672554          1.271761
   5         O                -0.559769          0.942967
   6         O                -0.509451          1.285234
   7         O                -0.436498          1.044323
   8         O                -0.356884          1.038611
   9         V                 0.079757          1.181975
  10         V                 0.141085          0.588231
  11         V                 0.164912          0.593897
  12         V                 0.170369          0.678179
  13         V                 0.240883          0.582707
  14         V                 0.372860          0.849511
  15         V                 0.393594          0.934174
  16         V                 0.400135          0.785570
  17         V                 0.464169          1.194589
  18         V                 0.489317          1.417694
  19         V                 0.493808          1.301990
  20         V                 0.591132          1.652859
  21         V                 0.665753          1.572464
  22         V                 0.691986          2.147633
  23         V                 0.772806          2.414800
  24         V                 0.776042          2.327927
  25         V                 0.840999          1.083711
  26         V                 0.952181          3.426168
  27         V                 2.231037          3.928030
  28         V                 2.290593          4.028902
  29         V                 2.333254          4.304960
  30         V                 2.406736          4.518615
  31         V                 2.671356          6.301042
  32         V                 2.817436          6.304713
  33         V                 2.878365          6.139892
  34         V                 2.951397          6.226282
  35         V                 3.141364          6.820715
  36         V                 3.319814          6.402192
  37         V                23.352810         60.074583
  38         V                23.706399         60.203996
 Total kinetic energy from orbitals= 7.815917001986D+01
 Calling FoFJK, ICntrl=      2127 FMM=F ISym2X=0 I1Cent= 0 IOpClX= 0 NMat=1 NMatS=1 NMatT=0.
 -------------------------------------------------------------------
 Center     Atomic                   Forces (Hartrees/Bohr)
 Number     Number              X              Y              Z
 -------------------------------------------------------------------
      1        6           0.013006827    0.011375516   -0.004700155
      2        1          -0.008939420    0.003152037    0.002314871
      3        1           0.002261692   -0.005127894    0.002177275
      4        6           0.008853371    0.010999511   -0.005059619
      5        1           0.001251034   -0.014231426    0.002601141
      6        1          -0.016433505   -0.006167744    0.002666487
 -------------------------------------------------------------------
 Cartesian Forces:  Max     0.016433505 RMS     0.008175426

 GradGradGradGradGradGradGradGradGradGradGradGradGradGradGradGradGradGrad
 Berny optimization.
 Search for a local minimum.
 Step number   1 out of a maximum of    2
 All quantities printed in internal units (Hartrees-Bohrs-Radians)
 Second derivative matrix not updated -- first step.
 The second derivative matrix:
                          X1        Y1        Z1        X2        Y2
           X1           0.76325
           Y1           0.09477   0.86048
           Z1           0.00689   0.01050   0.17103
           X2          -0.16797   0.09912   0.00255   0.14535
           Y2           0.10486  -0.28480  -0.00897  -0.11834   0.27343
           Z2           0.00403  -0.01127  -0.05492  -0.00367   0.00925
           X3          -0.35323  -0.00063  -0.00983  -0.00015  -0.00008
           Y3          -0.00642  -0.11059  -0.00238   0.03237   0.01921
           Z3          -0.01259  -0.00229  -0.05627   0.00183   0.00071
           X4          -0.26730  -0.17869  -0.00081   0.02280   0.01356
           Y4          -0.17870  -0.47346  -0.00127  -0.01316  -0.00783
           Z4           0.00164   0.00301  -0.09433  -0.00071  -0.00099
           X5           0.02356  -0.01360   0.00074  -0.00001   0.00001
           Y5           0.01153  -0.00666   0.00101   0.00001  -0.00000
           Z5          -0.00063   0.00040   0.01764   0.00030  -0.00016
           X6           0.00169  -0.00098   0.00046  -0.00001   0.00000
           Y6          -0.02604   0.01504   0.00111   0.00000  -0.00000
           Z6           0.00066  -0.00034   0.01686  -0.00030   0.00015
                          Z2        X3        Y3        Z3        X4
           Z2           0.02872
           X3          -0.00036   0.35331
           Y3           0.00199   0.00076   0.07596
           Z3           0.01059   0.01072   0.00157   0.02954
           X4           0.00059   0.00010  -0.02672  -0.00057   0.71175
           Y4          -0.00031  -0.00006   0.01543   0.00036   0.12331
           Z4           0.01554  -0.00053  -0.00118   0.01621  -0.00617
           X5          -0.00030  -0.00001   0.00001   0.00031  -0.14454
           Y5           0.00019   0.00001  -0.00000  -0.00020   0.09121
           Z5           0.00929   0.00031  -0.00020  -0.00944  -0.00368
           X6          -0.00030  -0.00001   0.00001   0.00030  -0.32280
           Y6           0.00015   0.00001  -0.00000  -0.00016  -0.02267
           Z6          -0.00922  -0.00031   0.00020   0.00937   0.01064
                          Y4        Z4        X5        Y5        Z5
           Y4           0.86019
           Z4          -0.01199   0.17698
           X5           0.08269  -0.00243   0.12314
           Y5          -0.28986   0.00886  -0.10172   0.28058
           Z5           0.01095  -0.05765   0.00328  -0.00947   0.02995
           X6          -0.01408   0.00821  -0.00215  -0.00104   0.00042
           Y6          -0.10447   0.00228   0.03262   0.01594  -0.00153
           Z6           0.00225  -0.05675  -0.00159  -0.00041   0.01022
                          X6        Y6        Z6
           X6           0.32328
           Y6           0.01608   0.07350
           Z6          -0.00909  -0.00186   0.02952
 ITU=  0
     Eigenvalues ---    0.03738   0.04390   0.09171   0.10140   0.13538
     Eigenvalues ---    0.17483   0.26417   0.29147   0.53078   0.70211
     Eigenvalues ---    0.97856   1.56468
 Angle between quadratic step and forces=  36.40 degrees.
 Linear search not attempted -- first point.
 B after Tr=     0.007182    0.008546   -0.012023
         Rot=    1.000000   -0.000065    0.000038   -0.000109 Ang=  -0.02 deg.
 Variable       Old X    -DE/DX   Delta X   Delta X   Delta X     New X
                                 (Linear)    (Quad)   (Total)
    X1       -0.63599   0.01301   0.00000   0.02167   0.02909  -0.60690
    Y1       -1.10033   0.01138   0.00000   0.02508   0.03350  -1.06683
    Z1        0.01455  -0.00470   0.00000  -0.02577  -0.03798  -0.02343
    X2        0.42086  -0.00894   0.00000  -0.04063  -0.03282   0.38804
    Y2       -2.87460   0.00315   0.00000   0.01076   0.01939  -2.85520
    Z2       -0.04977   0.00231   0.00000   0.03146   0.01910  -0.03067
    X3       -2.68570   0.00226   0.00000   0.02647   0.03390  -2.65179
    Y3       -1.10629  -0.00513   0.00000  -0.01673  -0.00876  -1.11505
    Z3       -0.05328   0.00218   0.00000   0.03087   0.01850  -0.03478
    X4        0.62824   0.00885   0.00000   0.00804   0.01499   0.64323
    Y4        1.08925   0.01100   0.00000   0.01032   0.01901   1.10825
    Z4        0.00999  -0.00506   0.00000  -0.02398  -0.03581  -0.02583
    X5       -0.29109   0.00125   0.00000  -0.01911  -0.01257  -0.30366
    Y5        2.96391  -0.01423   0.00000  -0.04617  -0.03769   2.92622
    Z5       -0.05903   0.00260   0.00000   0.03012   0.01845  -0.04058
    X6        2.72302  -0.01643   0.00000  -0.03951  -0.03259   2.69043
    Y6        1.22387  -0.00617   0.00000  -0.03458  -0.02544   1.19843
    Z6       -0.05538   0.00267   0.00000   0.02941   0.01774  -0.03764
         Item               Value     Threshold  Converged?
 Maximum Force            0.016434     0.000450     NO 
 RMS     Force            0.008175     0.000300     NO 
 Maximum Displacement     0.037978     0.001800     NO 
 RMS     Displacement     0.026466     0.001200     NO 
 Predicted change in Energy=-1.664850D-03
 GradGradGradGradGradGradGradGradGradGradGradGradGradGradGradGradGradGrad

 Unable to Open any file for archive entry.
 1\1\GINC-BHD0014\Force\RwB97XD\6-311G\C2H4\BWEIGHT\11-Jan-2023\0\\# WB
 97XD/6-311G SCF=XQC FORCE nosym pop=full guess=read\\MD Step 999\\0,1\
 C,-0.33654985,-0.58226938,0.00769694\H,0.22271175,-1.52117103,-0.02633
 625\H,-1.42121062,-0.58542303,-0.02819341\C,0.3324528,0.57640463,0.005
 284\H,-0.15404011,1.5684348,-0.03123836\H,1.44096014,0.64764276,-0.029
 30514\\Version=ES64L-G16RevC.01\HF=-78.5555461\RMSD=6.343e-09\RMSF=8.1
 75e-03\Dipole=0.0030003,0.0084153,-0.0460508\Quadrupole=0.8611027,0.84
 94146,-1.7105172,0.0115243,0.0007207,-0.0030933\PG=C01 [X(C2H4)]\\@
 The archive entry for this job was punched.


 SATCHEL PAIGE'S GUIDE TO LONGEVITY

    1.  AVOID FRIED MEATS, WHICH ANGRY UP THE BLOOD.

    2.  IF YOUR STOMACH DISPUTES YOU, LIE DOWN AND PACIFY IT WITH COOL
        THOUGHTS.

    3.  KEEP THE JUICES FLOWING BY JANGLING AROUND GENTLY AS YOU MOVE.

    4.  GO VERY LIGHT ON THE VICES, SUCH AS CARRYING ON IN SOCIETY.
        THE SOCIAL RUMBLE AIN'T RESTFUL.

    5.  AVOID RUNNING AT ALL TIMES.

    6.  DON'T LOOK BACK.  SOMETHING MAY BE GAINING ON YOU.
 Job cpu time:       0 days  0 hours  0 minutes 12.1 seconds.
 Elapsed time:       0 days  0 hours  0 minutes  3.7 seconds.
 File lengths (MBytes):  RWF=    272 Int=      0 D2E=      0 Chk=     32 Scr=     32
 Normal termination of Gaussian 16 at Wed Jan 11 19:42:31 2023.
