 Entering Gaussian System, Link 0=g16
 Initial command:
 /software/gaussian/g16-c01/sse4/g16/l1.exe "/gpfs/fs2/scratch/bweight/software/many_molecule_many_mode_NAMD/src/NAMD/TEST_ETHYLENE/G16/TD_NEW_S1/Gau-17930.inp" -scrdir="/gpfs/fs2/scratch/bweight/software/many_molecule_many_mode_NAMD/src/NAMD/TEST_ETHYLENE/G16/TD_NEW_S1/"
 Entering Link 1 = /software/gaussian/g16-c01/sse4/g16/l1.exe PID=     17931.
  
 Copyright (c) 1988-2019, Gaussian, Inc.  All Rights Reserved.
  
 This is part of the Gaussian(R) 16 program.  It is based on
 the Gaussian(R) 09 system (copyright 2009, Gaussian, Inc.),
 the Gaussian(R) 03 system (copyright 2003, Gaussian, Inc.),
 the Gaussian(R) 98 system (copyright 1998, Gaussian, Inc.),
 the Gaussian(R) 94 system (copyright 1995, Gaussian, Inc.),
 the Gaussian 92(TM) system (copyright 1992, Gaussian, Inc.),
 the Gaussian 90(TM) system (copyright 1990, Gaussian, Inc.),
 the Gaussian 88(TM) system (copyright 1988, Gaussian, Inc.),
 the Gaussian 86(TM) system (copyright 1986, Carnegie Mellon
 University), and the Gaussian 82(TM) system (copyright 1983,
 Carnegie Mellon University). Gaussian is a federally registered
 trademark of Gaussian, Inc.
  
 This software contains proprietary and confidential information,
 including trade secrets, belonging to Gaussian, Inc.
  
 This software is provided under written license and may be
 used, copied, transmitted, or stored only in accord with that
 written license.
  
 The following legend is applicable only to US Government
 contracts under FAR:
  
                    RESTRICTED RIGHTS LEGEND
  
 Use, reproduction and disclosure by the US Government is
 subject to restrictions as set forth in subparagraphs (a)
 and (c) of the Commercial Computer Software - Restricted
 Rights clause in FAR 52.227-19.
  
 Gaussian, Inc.
 340 Quinnipiac St., Bldg. 40, Wallingford CT 06492
  
  
 ---------------------------------------------------------------
 Warning -- This program may not be used in any manner that
 competes with the business of Gaussian, Inc. or will provide
 assistance to any competitor of Gaussian, Inc.  The licensee
 of this program is prohibited from giving any competitor of
 Gaussian, Inc. access to this program.  By using this program,
 the user acknowledges that Gaussian, Inc. is engaged in the
 business of creating and licensing software in the field of
 computational chemistry and represents and warrants to the
 licensee that it is not a competitor of Gaussian, Inc. and that
 it will not use this program in any manner prohibited above.
 ---------------------------------------------------------------
  

 Cite this work as:
 Gaussian 16, Revision C.01,
 M. J. Frisch, G. W. Trucks, H. B. Schlegel, G. E. Scuseria, 
 M. A. Robb, J. R. Cheeseman, G. Scalmani, V. Barone, 
 G. A. Petersson, H. Nakatsuji, X. Li, M. Caricato, A. V. Marenich, 
 J. Bloino, B. G. Janesko, R. Gomperts, B. Mennucci, H. P. Hratchian, 
 J. V. Ortiz, A. F. Izmaylov, J. L. Sonnenberg, D. Williams-Young, 
 F. Ding, F. Lipparini, F. Egidi, J. Goings, B. Peng, A. Petrone, 
 T. Henderson, D. Ranasinghe, V. G. Zakrzewski, J. Gao, N. Rega, 
 G. Zheng, W. Liang, M. Hada, M. Ehara, K. Toyota, R. Fukuda, 
 J. Hasegawa, M. Ishida, T. Nakajima, Y. Honda, O. Kitao, H. Nakai, 
 T. Vreven, K. Throssell, J. A. Montgomery, Jr., J. E. Peralta, 
 F. Ogliaro, M. J. Bearpark, J. J. Heyd, E. N. Brothers, K. N. Kudin, 
 V. N. Staroverov, T. A. Keith, R. Kobayashi, J. Normand, 
 K. Raghavachari, A. P. Rendell, J. C. Burant, S. S. Iyengar, 
 J. Tomasi, M. Cossi, J. M. Millam, M. Klene, C. Adamo, R. Cammi, 
 J. W. Ochterski, R. L. Martin, K. Morokuma, O. Farkas, 
 J. B. Foresman, and D. J. Fox, Gaussian, Inc., Wallingford CT, 2019.
 
 ******************************************
 Gaussian 16:  ES64L-G16RevC.01  3-Jul-2019
                 5-Jan-2023 
 ******************************************
 %oldchk=../GS_NEW/geometry.chk
 %chk=geometry.chk
 %nprocshared=1
 Will use up to    1 processors via shared memory.
 %mem=5GB
 Copying data from "../GS_NEW/geometry.chk" to current chk file "geometry.chk"
 IOpt=  2 FromEx=T IUOpen= 4 IOptOp= 5 NList=   0 IFRang= 0 IUIn= 4 IUOut= 2.
 ----------------------------------------------------------------------
 # WB97XD/6-311+G* SCF=XQC TD=(singlets,nstates=2,root=1) FORCE nosym p
 op=full guess=read
 ----------------------------------------------------------------------
 1/10=7,30=1,38=1/1,3;
 2/12=2,15=1,17=6,18=5,40=1/2;
 3/5=4,6=6,7=11,11=9,25=1,30=1,71=1,74=-58,116=-2/1,2,3,8;
 4/5=1/1;
 5/5=2,8=3,13=1,38=6/2,8;
 8/6=1,10=2,107=1,108=2/1;
 9/8=1,15=2,41=2,42=1,48=1,70=2/14;
 10/5=4,28=1,31=1/2;
 6/7=3,18=1/1;
 7/12=6,13=5,14=1,29=1,30=1/1,2,3,16;
 1/10=7,30=1/3;
 99//99;
 ------------
 MD Step 1000
 ------------
 Symbolic Z-matrix:
 Charge =  0 Multiplicity = 1
 C                     0.98397  -0.17552   0.11279 
 H                    -8.85549  -6.38748  -1.35079 
 H                    -7.96296  -6.1543   -1.74622 
 C                     0.32767   1.09555   0.09156 
 H                     0.05149   1.7969   -0.73502 
 H                     1.19833  -0.17553   1.46222 
 

 GradGradGradGradGradGradGradGradGradGradGradGradGradGradGradGradGradGrad
 Berny optimization.
 Initialization pass.
 Trust Radius=3.00D-01 FncErr=1.00D-07 GrdErr=1.00D-07 EigMax=2.50D+02 EigMin=1.00D-04
 Number of steps in this run=      2 maximum allowed number of steps=      2.
 GradGradGradGradGradGradGradGradGradGradGradGradGradGradGradGradGradGrad

                          Input orientation:                          
 ---------------------------------------------------------------------
 Center     Atomic      Atomic             Coordinates (Angstroms)
 Number     Number       Type             X           Y           Z
 ---------------------------------------------------------------------
      1          6           0        0.983972   -0.175516    0.112792
      2          1           0       -8.855488   -6.387482   -1.350788
      3          1           0       -7.962963   -6.154304   -1.746219
      4          6           0        0.327669    1.095553    0.091562
      5          1           0        0.051487    1.796904   -0.735019
      6          1           0        1.198328   -0.175534    1.462216
 ---------------------------------------------------------------------
                    Distance matrix (angstroms):
                    1          2          3          4          5
     1  C    0.000000
     2  H   11.727983   0.000000
     3  H   10.920142   1.003663   0.000000
     4  C    1.430664  11.933422  11.165682   0.000000
     5  H    2.340673  12.111877  11.334710   1.118662   0.000000
     6  H    1.366343  12.148272  11.400395   2.062135   3.167585
                    6
     6  H    0.000000
 Symmetry turned off by external request.
 Stoichiometry    C2H4
 Framework group  C1[X(C2H4)]
 Deg. of freedom    12
 Full point group                 C1      NOp   1
 Rotational constants (GHZ):          28.9297348           2.0448482           1.9407841
 Standard basis: 6-311+G(d) (5D, 7F)
    56 basis functions,    92 primitive gaussians,    58 cartesian basis functions
     8 alpha electrons        8 beta electrons
       nuclear repulsion energy        23.3605314934 Hartrees.
 NAtoms=    6 NActive=    6 NUniq=    6 SFac= 1.00D+00 NAtFMM=   60 NAOKFM=F Big=F
 Integral buffers will be    131072 words long.
 Raffenetti 1 integral format.
 Two-electron integral symmetry is turned off.
 Nuclear repulsion after empirical dispersion term =       23.3603197949 Hartrees.
 One-electron integrals computed using PRISM.
 NBasis=    56 RedAO= T EigKep=  2.94D-04  NBF=    56
 NBsUse=    56 1.00D-06 EigRej= -1.00D+00 NBFU=    56
 Initial guess from the checkpoint file:  "geometry.chk"
 B after Tr=     0.000000    0.000000    0.000000
         Rot=    1.000000    0.000000    0.000000    0.000000 Ang=   0.00 deg.
 Keep R1 ints in memory in canonical form, NReq=3522979.
 Requested convergence on RMS density matrix=1.00D-08 within  32 cycles.
 Requested convergence on MAX density matrix=1.00D-06.
 Requested convergence on             energy=1.00D-06.
 No special actions if energy rises.
 SCF Done:  E(RwB97XD) =  -78.3246463486     A.U. after    1 cycles
            NFock=  1  Conv=0.27D-09     -V/T= 2.0147
 QCSCF skips out because SCF is already converged.
 DoSCS=F DFT=T ScalE2(SS,OS)=  1.000000  1.000000
 ExpMin= 4.38D-02 ExpMax= 4.56D+03 ExpMxC= 6.82D+02 IAcc=3 IRadAn=         5 AccDes= 0.00D+00
 HarFok:  IExCor=  205 AccDes= 0.00D+00 IRadAn=         5 IDoV=-2 UseB2=F ITyADJ=14
 ICtDFT= 12500011 ScaDFX=  1.000000  1.000000  1.000000  1.000000
 Range of M.O.s used for correlation:     3    56
 NBasis=    56 NAE=     8 NBE=     8 NFC=     2 NFV=     0
 NROrb=     54 NOA=     6 NOB=     6 NVA=    48 NVB=    48

 **** Warning!!: The largest alpha MO coefficient is  0.28582600D+02

 Keep R1, R2, and R3 ints in memory in canonical form, NReq=8841822.
     8 initial guesses have been made.
 Convergence on wavefunction:    0.000001000000000
 Iteration     1 Dimension     8 NMult     0 NNew      8
 CISAX will form     8 AO SS matrices at one time.
 Iteration     2 Dimension    12 NMult     8 NNew      4
 Iteration     3 Dimension    16 NMult    12 NNew      4
 Iteration     4 Dimension    20 NMult    16 NNew      4
 Iteration     5 Dimension    24 NMult    20 NNew      4
 Iteration     6 Dimension    28 NMult    24 NNew      4
 Iteration     7 Dimension    32 NMult    28 NNew      4
 Iteration     8 Dimension    36 NMult    32 NNew      4
 Iteration     9 Dimension    38 NMult    36 NNew      2
 ***********************************************************************
 Excited states from <AA,BB:AA,BB> singles matrix:
 ***********************************************************************
 
 Ground to excited state transition densities written to RWF  633
 Ground to excited state transition electric dipole moments (Au):
       state          X           Y           Z        Dip. S.      Osc.
         1        -0.2284     -0.1138      0.0307      0.0661      0.0035
         2        -0.1658      0.3419      0.1640      0.1713      0.0186
 Ground to excited state transition velocity dipole moments (Au):
       state          X           Y           Z        Dip. S.      Osc.
         1        -0.0058     -0.0040     -0.0018      0.0001      0.0005
         2         0.0246     -0.0538     -0.0283      0.0043      0.0176
 Ground to excited state transition magnetic dipole moments (Au):
       state          X           Y           Z
         1        -0.0075     -0.3477     -0.0214
         2         0.4211      0.1071      0.0212
 Ground to excited state transition velocity quadrupole moments (Au):
       state          XX          YY          ZZ          XY          XZ          YZ
         1        -0.0128     -0.0205     -0.0029      0.0052      0.0136     -0.0166
         2         0.1075     -0.1064      0.0008     -0.0778     -0.0415     -0.0026
 <0|del|b> * <b|rxdel|0> + <0|del|b> * <b|delr+rdel|0>
 Rotatory Strengths (R) in cgs (10**-40 erg-esu-cm/Gauss)
       state          XX          YY          ZZ    R(velocity)    E-M Angle
         1         6.6696      0.8442      5.8087      4.4408       54.41
         2       -13.8498     16.2844     14.9750      5.8032       81.91
 1/2[<0|r|b>*<b|rxdel|0> + (<0|rxdel|b>*<b|r|0>)*]
 Rotatory Strengths (R) in cgs (10**-40 erg-esu-cm/Gauss)
       state          XX          YY          ZZ     R(length)
         1        -1.2116    -27.9922      0.4653     -9.5795
         2        49.3818    -25.9013     -2.4579      7.0075
  1/2[<0|del|b>*<b|r|0> + (<0|r|b>*<b|del|0>)*] (Au)
       state          X           Y           Z        Dip. S.   Osc.(frdel)
         1         0.0013      0.0005     -0.0001     -0.0017     -0.0012
         2        -0.0041     -0.0184     -0.0046      0.0271      0.0181

 Excitation energies and oscillator strengths:
 
 Excited state symmetry could not be determined.
 Excited State   1:      Singlet-?Sym    2.1420 eV  578.83 nm  f=0.0035  <S**2>=0.000
       8 ->  9         0.70458
 This state for optimization and/or second-order correction.
 Total Energy, E(TD-HF/TD-DFT) =  -78.2459294058    
 Copying the excited state density for this state as the 1-particle RhoCI density.
 
 Excited state symmetry could not be determined.
 Excited State   2:      Singlet-?Sym    4.4380 eV  279.37 nm  f=0.0186  <S**2>=0.000
       7 ->  9         0.57803
       8 -> 10        -0.39911
 SavETr:  write IOETrn=   770 NScale= 10 NData=  16 NLR=1 NState=    2 LETran=      46.
          IDoAtm=111111
          Differentiating once with respect to electric field.
                with respect to dipole field.
          Differentiating once with respect to nuclear coordinates.
 Keep R1 ints in memory in canonical form, NReq=3526834.
          There are     1 degrees of freedom in the 1st order CPHF.  IDoFFX=0 NUNeed=     1.
 LinEq1:  Iter=  0 NonCon=     1 RMS=1.54D-02 Max=1.12D-01 NDo=     1
 AX will form     1 AO Fock derivatives at one time.
 LinEq1:  Iter=  1 NonCon=     1 RMS=1.33D-02 Max=1.57D-01 NDo=     1
 LinEq1:  Iter=  2 NonCon=     1 RMS=7.29D-03 Max=8.12D-02 NDo=     1
 LinEq1:  Iter=  3 NonCon=     1 RMS=3.29D-03 Max=3.98D-02 NDo=     1
 LinEq1:  Iter=  4 NonCon=     1 RMS=8.84D-04 Max=6.43D-03 NDo=     1
 LinEq1:  Iter=  5 NonCon=     1 RMS=1.59D-04 Max=1.13D-03 NDo=     1
 LinEq1:  Iter=  6 NonCon=     1 RMS=3.75D-05 Max=3.37D-04 NDo=     1
 LinEq1:  Iter=  7 NonCon=     1 RMS=1.07D-05 Max=5.91D-05 NDo=     1
 LinEq1:  Iter=  8 NonCon=     1 RMS=2.54D-06 Max=1.79D-05 NDo=     1
 LinEq1:  Iter=  9 NonCon=     1 RMS=5.45D-07 Max=4.36D-06 NDo=     1
 LinEq1:  Iter= 10 NonCon=     1 RMS=1.14D-07 Max=9.01D-07 NDo=     1
 LinEq1:  Iter= 11 NonCon=     1 RMS=2.93D-08 Max=1.81D-07 NDo=     1
 LinEq1:  Iter= 12 NonCon=     1 RMS=5.98D-09 Max=3.49D-08 NDo=     1
 LinEq1:  Iter= 13 NonCon=     1 RMS=9.16D-10 Max=6.17D-09 NDo=     1
 LinEq1:  Iter= 14 NonCon=     1 RMS=1.20D-10 Max=1.02D-09 NDo=     1
 LinEq1:  Iter= 15 NonCon=     0 RMS=1.94D-11 Max=1.72D-10 NDo=     1
 Linear equations converged to 1.000D-10 1.000D-09 after    15 iterations.
 End of Minotr F.D. properties file   721 does not exist.
 End of Minotr F.D. properties file   722 does not exist.
 End of Minotr F.D. properties file   788 does not exist.

 **********************************************************************

            Population analysis using the SCF Density.

 **********************************************************************

 Alpha  occ. eigenvalues --  -10.36766 -10.36523  -0.83949  -0.64889  -0.47196
 Alpha  occ. eigenvalues --   -0.46556  -0.40824  -0.36099
 Alpha virt. eigenvalues --   -0.06152   0.04035   0.07617   0.08329   0.08332
 Alpha virt. eigenvalues --    0.10900   0.12344   0.13450   0.15366   0.17155
 Alpha virt. eigenvalues --    0.18454   0.21927   0.23853   0.30017   0.37332
 Alpha virt. eigenvalues --    0.47138   0.49646   0.52197   0.58265   0.61352
 Alpha virt. eigenvalues --    0.63300   0.64519   0.66630   0.72207   0.77637
 Alpha virt. eigenvalues --    0.92927   1.22377   1.25953   1.30075   1.44169
 Alpha virt. eigenvalues --    1.54726   1.65620   1.75338   1.92237   1.98469
 Alpha virt. eigenvalues --    2.18498   2.30723   2.42887   2.48032   2.57574
 Alpha virt. eigenvalues --    2.74576   2.86182   2.92544   2.96429   3.04738
 Alpha virt. eigenvalues --    3.53665  23.34136  23.88129
     Molecular Orbital Coefficients:
                           1         2         3         4         5
                           O         O         O         O         O
     Eigenvalues --   -10.36766 -10.36523  -0.83949  -0.64889  -0.47196
   1 1   C  1S          0.05378   0.56132  -0.07959  -0.06327  -0.00000
   2        2S          0.04456   0.46155  -0.12519  -0.10060  -0.00000
   3        2PX        -0.00028   0.00015  -0.02890   0.00259   0.00000
   4        2PY         0.00058   0.00005   0.06108   0.00259   0.00000
   5        2PZ         0.00005   0.00064   0.00658   0.03725   0.00000
   6        3S          0.00037   0.01298   0.34030   0.27898   0.00000
   7        3PX         0.00118  -0.00124  -0.03887   0.00951  -0.00000
   8        3PY        -0.00226   0.00229   0.08626  -0.00397  -0.00000
   9        3PZ        -0.00005  -0.00027   0.01912   0.07200  -0.00000
  10        4S         -0.00028  -0.00813   0.19687   0.24523  -0.00000
  11        4PX        -0.00030   0.00088  -0.00951   0.00344   0.00000
  12        4PY         0.00056  -0.00176   0.02441   0.00525   0.00000
  13        4PZ        -0.00022  -0.00024   0.01036   0.03403   0.00000
  14        5S         -0.00579   0.01388   0.00267  -0.14123   0.00000
  15        5PX         0.00060  -0.00188   0.00273   0.01979  -0.00000
  16        5PY        -0.00105   0.00366  -0.00551  -0.03776  -0.00000
  17        5PZ        -0.00034  -0.00027   0.00252  -0.00194  -0.00000
  18        6D 0        0.00077  -0.00074   0.00001   0.01282   0.00000
  19        6D+1        0.00001   0.00004   0.00191   0.00021   0.00000
  20        6D-1       -0.00003  -0.00009   0.00097   0.00674   0.00000
  21        6D+2        0.00083  -0.00069  -0.00901   0.00029  -0.00000
  22        6D-2        0.00118  -0.00096  -0.01198  -0.00101   0.00000
  23 2   H  1S          0.00000   0.00000  -0.00000   0.00000   0.17114
  24        2S         -0.00000  -0.00000   0.00000   0.00000   0.30292
  25        3S          0.00000   0.00000  -0.00000  -0.00000   0.16443
  26 3   H  1S         -0.00000  -0.00000   0.00000   0.00000   0.17112
  27        2S          0.00000   0.00000  -0.00000  -0.00000   0.30285
  28        3S         -0.00000  -0.00000   0.00000   0.00000   0.16387
  29 4   C  1S          0.56112  -0.05390  -0.09226   0.05443   0.00000
  30        2S          0.46156  -0.04405  -0.14556   0.08757   0.00000
  31        2PX        -0.00033   0.00032   0.02618   0.05123  -0.00000
  32        2PY         0.00103  -0.00067  -0.04406  -0.11034   0.00000
  33        2PZ        -0.00011   0.00006  -0.01006   0.07459  -0.00000
  34        3S          0.01344  -0.00208   0.39641  -0.24548   0.00000
  35        3PX         0.00116  -0.00126   0.03213   0.08093  -0.00000
  36        3PY        -0.00234   0.00250  -0.05045  -0.17615  -0.00000
  37        3PZ        -0.00021  -0.00008  -0.02378   0.11986  -0.00000
  38        4S         -0.00710   0.00254   0.23979  -0.24363  -0.00000
  39        4PX        -0.00038   0.00079   0.01195   0.03311  -0.00000
  40        4PY         0.00071  -0.00156  -0.01651  -0.07445   0.00000
  41        4PZ         0.00050   0.00022  -0.00209   0.05618  -0.00000
  42        5S          0.00660  -0.01298  -0.00619   0.14114  -0.00000
  43        5PX         0.00123  -0.00146  -0.00469   0.02049   0.00000
  44        5PY        -0.00259   0.00275   0.00915  -0.04104   0.00000
  45        5PZ         0.00085   0.00032  -0.00404   0.00762   0.00000
  46        6D 0       -0.00061   0.00085  -0.00126  -0.01177  -0.00000
  47        6D+1        0.00012   0.00002   0.00420  -0.00738  -0.00000
  48        6D-1       -0.00031  -0.00005  -0.00917   0.01994   0.00000
  49        6D+2       -0.00070   0.00084  -0.01091   0.00481  -0.00000
  50        6D-2       -0.00096   0.00118  -0.01389   0.00115   0.00000
  51 5   H  1S          0.00006  -0.00009   0.06182  -0.15534   0.00000
  52        2S         -0.00062  -0.00036   0.06469  -0.19084   0.00000
  53        3S          0.00246   0.00106  -0.00035  -0.03086  -0.00000
  54 6   H  1S         -0.00004   0.00011   0.04440   0.07102   0.00000
  55        2S          0.00023   0.00046   0.05259   0.09786  -0.00000
  56        3S         -0.00011   0.00005   0.00085   0.01847   0.00000
                           6         7         8         9        10
                           O         O         O         V         V
     Eigenvalues --    -0.46556  -0.40824  -0.36099  -0.06152   0.04035
   1 1   C  1S         -0.00894  -0.05850   0.00455  -0.02288   0.00604
   2        2S         -0.01473  -0.09484   0.00737  -0.03667   0.00984
   3        2PX         0.08609   0.04323   0.13806   0.06083   0.16943
   4        2PY        -0.12133  -0.09520   0.10056  -0.09520   0.08901
   5        2PZ         0.11103  -0.11502  -0.01222  -0.08371  -0.03078
   6        3S          0.03212   0.27729  -0.02034   0.09322  -0.02876
   7        3PX         0.13267   0.06453   0.21940   0.09188   0.26075
   8        3PY        -0.18140  -0.14071   0.15657  -0.14163   0.13397
   9        3PZ         0.18148  -0.18112  -0.01939  -0.13462  -0.04895
  10        4S          0.14595   0.37535  -0.04874   0.32918  -0.05315
  11        4PX         0.06884   0.04646   0.18273   0.07927   0.37901
  12        4PY        -0.08326  -0.10038   0.12084  -0.11108   0.22098
  13        4PZ         0.12612  -0.11831  -0.01572  -0.12734  -0.07347
  14        5S          0.01377  -0.04453  -0.02452   0.15952  -0.02641
  15        5PX         0.00144   0.01333   0.01700   0.01790   0.49763
  16        5PY        -0.00199  -0.02931   0.00751  -0.03652   0.23424
  17        5PZ         0.00530   0.00012   0.00100  -0.12354  -0.03489
  18        6D 0        0.03057  -0.00010  -0.00281  -0.01240  -0.00134
  19        6D+1        0.00638   0.00931   0.00652  -0.00973   0.00864
  20        6D-1        0.00042  -0.02140   0.00203   0.01284   0.00223
  21        6D+2        0.00822   0.00622  -0.02383  -0.00026   0.01698
  22        6D-2        0.01338   0.00633   0.01629   0.00444  -0.00910
  23 2   H  1S         -0.00000  -0.00000   0.00000  -0.00000   0.00001
  24        2S         -0.00000  -0.00000  -0.00000   0.00000   0.00001
  25        3S         -0.00000  -0.00000   0.00000  -0.00000   0.00006
  26 3   H  1S         -0.00000  -0.00000  -0.00000   0.00000  -0.00001
  27        2S         -0.00000  -0.00000   0.00000  -0.00000   0.00000
  28        3S         -0.00000   0.00000  -0.00000   0.00000  -0.00007
  29 4   C  1S          0.01699   0.04017   0.00329  -0.02336  -0.00399
  30        2S          0.02652   0.06489   0.00550  -0.03812  -0.00674
  31        2PX        -0.05237  -0.00365   0.18430  -0.02262  -0.15645
  32        2PY         0.13666   0.00874   0.06568   0.09796  -0.06965
  33        2PZ        -0.00199  -0.14410  -0.01584   0.16530  -0.00360
  34        3S         -0.07987  -0.19034  -0.01685   0.10495   0.02039
  35        3PX        -0.07378  -0.00182   0.28883  -0.03501  -0.24522
  36        3PY         0.19891   0.00403   0.10574   0.15551  -0.11063
  37        3PZ         0.00221  -0.22113  -0.02474   0.25460  -0.00612
  38        4S         -0.07024  -0.21988  -0.02003   0.26394   0.03781
  39        4PX        -0.05057  -0.01327   0.26590  -0.05663  -0.38366
  40        4PY         0.13509   0.02414   0.09320   0.21981  -0.14595
  41        4PZ         0.00389  -0.21670  -0.02200   0.27956  -0.02550
  42        5S          0.00234   0.07745   0.01703   0.05686   0.09679
  43        5PX         0.00045   0.01142   0.03247  -0.01672  -0.47854
  44        5PY         0.00261  -0.01714   0.00631   0.07613  -0.26076
  45        5PZ        -0.00408  -0.03047  -0.00424   0.15937   0.02463
  46        6D 0        0.00592   0.00362  -0.00065  -0.01094   0.00238
  47        6D+1        0.00984  -0.00670  -0.00658  -0.00797   0.00595
  48        6D-1       -0.02016   0.00723  -0.00125   0.01595   0.00837
  49        6D+2       -0.00010  -0.00178   0.01420   0.00144   0.02907
  50        6D-2       -0.00060  -0.00056  -0.00812   0.00304  -0.02184
  51 5   H  1S          0.07649   0.05288   0.00151  -0.06510  -0.01538
  52        2S          0.12208   0.06774   0.00162  -0.14850  -0.04401
  53        3S          0.04596  -0.00539  -0.00282  -0.16136  -0.07328
  54 6   H  1S          0.14162  -0.03993   0.00150  -0.10038   0.01481
  55        2S          0.23778  -0.07914   0.00397  -0.20832   0.03398
  56        3S          0.12018  -0.03736  -0.00386  -0.25345   0.07252
                          11        12        13        14        15
                           V         V         V         V         V
     Eigenvalues --     0.07617   0.08329   0.08332   0.10900   0.12344
   1 1   C  1S          0.01537  -0.00048   0.03485   0.01677  -0.00248
   2        2S          0.02386  -0.00077   0.05583   0.02807  -0.00404
   3        2PX        -0.03049   0.00040  -0.03160  -0.00687  -0.04917
   4        2PY         0.02749  -0.00001  -0.00018   0.01697  -0.03272
   5        2PZ        -0.05022   0.00139  -0.10177   0.05488   0.00520
   6        3S         -0.04248   0.00203  -0.14780  -0.10703   0.01293
   7        3PX        -0.03575   0.00056  -0.04301  -0.00151  -0.04218
   8        3PY         0.02041   0.00016  -0.01216   0.01086  -0.02653
   9        3PZ        -0.08286   0.00221  -0.16174   0.06916   0.00386
  10        4S         -0.49919   0.00707  -0.51806   0.03291   0.03396
  11        4PX        -0.07844   0.00176  -0.13667  -0.09288  -0.19200
  12        4PY         0.06053  -0.00120   0.08055   0.18359  -0.13871
  13        4PZ        -0.15270   0.00451  -0.33180   0.18946   0.02588
  14        5S          4.65414   0.07448  -5.35792  -9.84590   0.14780
  15        5PX        -0.53850  -0.01144   0.84102   1.62929   0.28657
  16        5PY         0.95921   0.02282  -1.63358  -3.18952   0.38365
  17        5PZ         0.26488  -0.00183   0.14301  -0.08456  -0.00943
  18        6D 0       -0.00016   0.00015  -0.01133  -0.00164   0.00062
  19        6D+1       -0.00208  -0.00003   0.00191  -0.00315  -0.00109
  20        6D-1        0.00097   0.00013  -0.00980   0.00905   0.00052
  21        6D+2        0.00430   0.00005  -0.00348  -0.00596   0.01162
  22        6D-2        0.00637   0.00004  -0.00311  -0.00813  -0.00677
  23 2   H  1S         -0.00001   0.12590   0.00172   0.00001  -0.00003
  24        2S         -0.00002   0.22653   0.00310   0.00003  -0.00006
  25        3S         -0.00013   1.30706   0.01790   0.00011  -0.00024
  26 3   H  1S          0.00001  -0.12602  -0.00173  -0.00001   0.00003
  27        2S          0.00002  -0.22744  -0.00312  -0.00004   0.00014
  28        3S          0.00013  -1.30626  -0.01788  -0.00009   0.00016
  29 4   C  1S          0.02746   0.00017  -0.01255  -0.00506  -0.00111
  30        2S          0.04553   0.00031  -0.02246  -0.00855  -0.00179
  31        2PX         0.01991  -0.00004   0.00333   0.00475  -0.07876
  32        2PY        -0.03884  -0.00024   0.01735  -0.00822  -0.03358
  33        2PZ         0.00819   0.00059  -0.04301   0.05490   0.00642
  34        3S         -0.14408  -0.00124   0.08932   0.04229   0.00560
  35        3PX         0.03474  -0.00006   0.00499   0.01164  -0.07651
  36        3PY        -0.06893  -0.00050   0.03652  -0.02661  -0.03480
  37        3PZ         0.04786   0.00086  -0.06291   0.07333   0.00751
  38        4S         -0.31140   0.00049  -0.03596  -0.19151   0.02403
  39        4PX         0.08589   0.00021  -0.01414  -0.05164  -0.31049
  40        4PY        -0.16817  -0.00135   0.09531   0.11507  -0.14013
  41        4PZ        -0.00931   0.00226  -0.16487   0.16519   0.02681
  42        5S         -2.99885  -0.07984   5.75492  10.51745  -0.27938
  43        5PX        -0.81436  -0.01532   1.10661   1.36861   0.78724
  44        5PY         1.87010   0.02758  -1.98766  -2.63438   0.33140
  45        5PZ        -0.43972  -0.00690   0.50209  -0.91385  -0.06315
  46        6D 0       -0.00790  -0.00023   0.01634   0.00210   0.00007
  47        6D+1       -0.00929   0.00006  -0.00425   0.00096   0.00125
  48        6D-1        0.02223  -0.00009   0.00681   0.00057   0.00020
  49        6D+2        0.00256  -0.00005   0.00305   0.00948  -0.00813
  50        6D-2        0.00422  -0.00018   0.01309   0.01129   0.00576
  51 5   H  1S         -0.03104   0.00026  -0.01928  -0.01300   0.00006
  52        2S          0.12667   0.00214  -0.15587   0.08903   0.00942
  53        3S         -0.56585  -0.00002   0.00172  -0.46146  -0.00166
  54 6   H  1S          0.01890  -0.00052   0.03793  -0.00659  -0.00108
  55        2S          0.08074  -0.00230   0.16939  -0.10052   0.00776
  56        3S          0.11803  -0.00353   0.25332   0.20438  -0.05613
                          16        17        18        19        20
                           V         V         V         V         V
     Eigenvalues --     0.13450   0.15366   0.17155   0.18454   0.21927
   1 1   C  1S         -0.01271  -0.00210   0.00072  -0.01112   0.01890
   2        2S         -0.01926  -0.00403   0.00153  -0.01859   0.02992
   3        2PX        -0.00543   0.01869   0.11020   0.03871  -0.00156
   4        2PY         0.02119  -0.03499   0.05615  -0.00539   0.01245
   5        2PZ         0.03524  -0.04999  -0.02071   0.14701   0.06565
   6        3S          0.03280   0.02976  -0.01073   0.04307  -0.05445
   7        3PX         0.00557   0.01491   0.12026   0.03750   0.01590
   8        3PY         0.01470  -0.03409   0.06091   0.01368  -0.03238
   9        3PZ         0.07014  -0.06230  -0.02184   0.19145   0.04908
  10        4S          0.49348  -0.06126   0.05711   0.30326  -0.53994
  11        4PX        -0.06514   0.08374   0.49871   0.17167  -0.05139
  12        4PY         0.14955  -0.15196   0.26454   0.00468   0.20737
  13        4PZ         0.10654  -0.21397  -0.10017   0.76943   0.49618
  14        5S          0.78349   2.38632  -1.50244  -3.98164  28.58260
  15        5PX         0.66592  -0.57242  -1.63696   0.29738  -3.78492
  16        5PY        -0.81415   1.37697  -1.40126  -0.70757   7.24302
  17        5PZ         1.40373   2.18753   0.15141   0.30200   0.18298
  18        6D 0       -0.02412  -0.00994   0.00064  -0.01420  -0.00124
  19        6D+1       -0.00105  -0.00196   0.00538  -0.00588   0.00192
  20        6D-1       -0.00592  -0.00449   0.00027   0.00358  -0.00612
  21        6D+2       -0.00764   0.00630  -0.00067   0.00311   0.00766
  22        6D-2       -0.01343   0.01008  -0.00014   0.00357   0.01292
  23 2   H  1S         -0.00001  -0.00000   0.00001   0.00000   0.00000
  24        2S         -0.00001  -0.00001   0.00003   0.00000   0.00000
  25        3S         -0.00005  -0.00002   0.00010   0.00001   0.00002
  26 3   H  1S          0.00001   0.00000  -0.00002  -0.00000  -0.00000
  27        2S          0.00004   0.00002  -0.00014  -0.00002  -0.00005
  28        3S          0.00003   0.00001   0.00001   0.00001   0.00003
  29 4   C  1S         -0.00810  -0.00488  -0.00367   0.01720  -0.02976
  30        2S         -0.01240  -0.00802  -0.00585   0.02660  -0.04822
  31        2PX         0.00937  -0.00510  -0.09573  -0.00239  -0.01815
  32        2PY        -0.03287   0.03326  -0.04265  -0.03244   0.03938
  33        2PZ        -0.01189   0.05920   0.00150  -0.04239  -0.05016
  34        3S          0.03342   0.02348   0.01434  -0.03630   0.09426
  35        3PX         0.01190   0.00493  -0.10840  -0.00963  -0.00693
  36        3PY        -0.03969   0.01378  -0.04958  -0.03503   0.03009
  37        3PZ        -0.00433   0.07423   0.00252  -0.03752  -0.08685
  38        4S          0.09613   0.14549   0.09164  -0.74038   1.05511
  39        4PX        -0.03644  -0.02028  -0.46241  -0.02562  -0.18912
  40        4PY         0.01463   0.15280  -0.18352  -0.11395   0.37442
  41        4PZ        -0.06225   0.25020   0.00035  -0.28176  -0.38866
  42        5S         -0.13785  -1.99040   1.40843   5.38031 -27.52066
  43        5PX        -0.44957  -0.09113   1.86583   1.17391  -3.60011
  44        5PY         0.74110  -0.11650   0.64579  -1.98294   7.19004
  45        5PZ        -0.58995  -2.01704  -0.21519   0.58454  -0.40878
  46        6D 0       -0.01182  -0.00278   0.00010   0.00127  -0.00905
  47        6D+1        0.00264  -0.00286   0.00238   0.00266   0.00358
  48        6D-1       -0.00887   0.00609   0.00542  -0.01514  -0.01186
  49        6D+2       -0.00378   0.00904   0.00707   0.01598  -0.00592
  50        6D-2       -0.00721   0.01079  -0.00644   0.01602  -0.00610
  51 5   H  1S          0.01320  -0.02800  -0.00922   0.02599  -0.03103
  52        2S          0.04468   0.01379  -0.00569   0.07437  -0.18848
  53        3S         -0.08007  -0.50476  -0.17667   0.09019  -0.96957
  54 6   H  1S         -0.07173  -0.03288   0.01017  -0.09626  -0.01171
  55        2S         -0.06038   0.05938   0.00366  -0.15936   0.03509
  56        3S         -0.96871  -0.69801   0.19901  -1.91783  -1.04292
                          21        22        23        24        25
                           V         V         V         V         V
     Eigenvalues --     0.23853   0.30017   0.37332   0.47138   0.49646
   1 1   C  1S          0.00386  -0.00000  -0.04324  -0.00001   0.03990
   2        2S          0.00790  -0.00000  -0.06860  -0.00001   0.07301
   3        2PX         0.01525  -0.00001  -0.07063  -0.00002   0.00908
   4        2PY        -0.06161  -0.00001   0.12422  -0.00001  -0.04593
   5        2PZ         0.02139  -0.00000  -0.03337   0.00000  -0.04090
   6        3S         -0.05858   0.00001   0.11789   0.00006  -0.36121
   7        3PX         0.01371  -0.00003  -0.09192  -0.00008   0.02895
   8        3PY        -0.06238  -0.00002   0.16029  -0.00004  -0.11773
   9        3PZ         0.03068  -0.00001  -0.07586  -0.00001  -0.07179
  10        4S          0.26744   0.00006   3.33878   0.00002  -0.39712
  11        4PX         0.09880  -0.00002  -1.08716   0.00008   0.14961
  12        4PY        -0.36031   0.00001   2.08396   0.00007  -0.32095
  13        4PZ         0.17492  -0.00000   0.08335   0.00004  -0.05367
  14        5S        -16.31655  -0.00079  -4.30875  -0.00086   6.05170
  15        5PX         2.14148   0.00025   0.77553   0.00015  -0.45308
  16        5PY        -4.19123  -0.00012  -1.44947  -0.00014   1.32068
  17        5PZ         0.29606   0.00002   0.55204  -0.00009   0.80777
  18        6D 0        0.00317  -0.00000   0.02531  -0.00001   0.03260
  19        6D+1        0.01662  -0.00000   0.00351  -0.00000   0.01340
  20        6D-1       -0.02114  -0.00000   0.00218   0.00000  -0.01087
  21        6D+2       -0.00481   0.00000   0.01393   0.00000  -0.00362
  22        6D-2       -0.00553  -0.00000   0.02317  -0.00000  -0.00419
  23 2   H  1S         -0.00000  -0.06773   0.00000   0.12006   0.00001
  24        2S          0.00000  -0.79694   0.00003   1.26661   0.00015
  25        3S         -0.00001   0.88118  -0.00004  -2.00739  -0.00024
  26 3   H  1S          0.00000  -0.06749  -0.00000  -0.12019  -0.00002
  27        2S          0.00002  -0.79510  -0.00001  -1.26753  -0.00016
  28        3S         -0.00001   0.87994   0.00002   2.00847   0.00026
  29 4   C  1S         -0.03277   0.00000   0.04272  -0.00000  -0.00661
  30        2S         -0.05318   0.00000   0.06974  -0.00000  -0.00637
  31        2PX        -0.00351   0.00000  -0.05915  -0.00000  -0.00308
  32        2PY         0.03962   0.00000   0.12338  -0.00001   0.00338
  33        2PZ        -0.11959   0.00000  -0.01459  -0.00000   0.00928
  34        3S          0.11912  -0.00000  -0.15516   0.00002  -0.13297
  35        3PX        -0.01162  -0.00000  -0.06809  -0.00001  -0.06963
  36        3PY         0.06525  -0.00000   0.13717  -0.00003   0.11860
  37        3PZ        -0.15847   0.00000  -0.02486   0.00000  -0.00960
  38        4S          1.41293  -0.00004  -2.69402  -0.00008   0.77404
  39        4PX        -0.04703   0.00000  -1.17127  -0.00002   0.47442
  40        4PY         0.31407   0.00004   2.35708   0.00008  -0.77802
  41        4PZ        -0.87805  -0.00000  -0.20789  -0.00003   0.13513
  42        5S         17.30465   0.00077   5.19735   0.00080  -5.89696
  43        5PX         1.68679   0.00000   0.71084   0.00002  -0.63346
  44        5PY        -3.13405  -0.00023  -1.31525  -0.00018   0.93166
  45        5PZ        -1.06840  -0.00002  -0.60685  -0.00004   0.45217
  46        6D 0        0.00552  -0.00000  -0.03702  -0.00000   0.02182
  47        6D+1       -0.00336  -0.00000  -0.00003  -0.00000  -0.00710
  48        6D-1        0.01287   0.00000   0.00145  -0.00000   0.01665
  49        6D+2        0.01129  -0.00000  -0.02441  -0.00001   0.01640
  50        6D-2        0.01767   0.00000  -0.02910   0.00000   0.02560
  51 5   H  1S         -0.09613   0.00000   0.01865   0.00001  -0.08203
  52        2S         -0.19272   0.00001  -0.00593   0.00008  -0.77238
  53        3S         -3.38548  -0.00003  -1.38134  -0.00021   2.09530
  54 6   H  1S          0.03386  -0.00000   0.04855  -0.00001   0.12294
  55        2S          0.01026  -0.00001   0.23335  -0.00018   1.38649
  56        3S          0.62072   0.00003  -0.71894   0.00036  -2.97586
                          26        27        28        29        30
                           V         V         V         V         V
     Eigenvalues --     0.52197   0.58265   0.61352   0.63300   0.64519
   1 1   C  1S          0.00257  -0.02273  -0.00079  -0.00658  -0.00407
   2        2S          0.00504  -0.03854  -0.00082  -0.01560  -0.00357
   3        2PX        -0.00522   0.05418  -0.11751  -0.06330   0.00663
   4        2PY         0.00210  -0.08876  -0.06435   0.07272  -0.05933
   5        2PZ         0.07369   0.12385  -0.00161   0.08030  -0.18377
   6        3S         -0.03794   0.06947  -0.01121   0.18224  -0.10158
   7        3PX        -0.05880   0.25766  -0.48658  -0.21356   0.01344
   8        3PY         0.09647  -0.44145  -0.26779   0.24135  -0.20845
   9        3PZ         0.10952   0.42879  -0.01960   0.40421  -0.74781
  10        4S          1.36991   0.06159   0.08696  -0.48401   0.84535
  11        4PX        -0.19787  -0.71648   0.62495   0.43409  -0.16200
  12        4PY         0.37833   1.28797   0.39630  -0.61911   0.80750
  13        4PZ         0.42361  -0.60789   0.08676  -0.70390   2.00169
  14        5S         -0.38965  -0.19430   0.23515  -4.88134   0.20738
  15        5PX        -0.16255   0.30711  -0.22804   0.39505  -0.02582
  16        5PY         0.19126  -0.67736  -0.06201  -1.06112  -0.22149
  17        5PZ        -0.78766  -0.40696   0.00650   0.18424  -0.95449
  18        6D 0       -0.02402   0.01165  -0.00667   0.02940  -0.03518
  19        6D+1        0.02601  -0.00630   0.00159  -0.00705  -0.00058
  20        6D-1       -0.05186   0.00403  -0.00066   0.04167  -0.01645
  21        6D+2       -0.01010   0.02090   0.04423  -0.00067   0.00510
  22        6D-2       -0.00789   0.03333  -0.02788  -0.00433   0.00889
  23 2   H  1S         -0.00000  -0.00000  -0.00001   0.00000  -0.00000
  24        2S         -0.00001  -0.00000  -0.00008   0.00000  -0.00002
  25        3S          0.00002   0.00000   0.00017  -0.00001   0.00005
  26 3   H  1S          0.00000   0.00000   0.00002  -0.00000   0.00001
  27        2S          0.00001   0.00000   0.00012  -0.00000   0.00003
  28        3S         -0.00002  -0.00000  -0.00021   0.00001  -0.00006
  29 4   C  1S          0.00153   0.00019   0.00101  -0.00846  -0.00581
  30        2S          0.00252   0.00246   0.00232  -0.01869  -0.00930
  31        2PX         0.03040  -0.05296  -0.16727  -0.01840   0.01202
  32        2PY        -0.04675   0.09948  -0.08751   0.04482   0.02134
  33        2PZ        -0.03800  -0.00100  -0.00716   0.19552   0.14077
  34        3S         -0.02820  -0.12212  -0.01979   0.17355   0.02359
  35        3PX         0.12715  -0.21165  -0.67106  -0.01030   0.00921
  36        3PY        -0.21052   0.40538  -0.34370   0.03854   0.13742
  37        3PZ        -0.06755   0.02895  -0.02984   0.81167   0.49932
  38        4S         -0.45873  -0.70707  -0.02044   0.63844  -0.52697
  39        4PX        -0.89087   0.27517   1.04713  -0.04289  -0.28384
  40        4PY         1.81116  -0.52060   0.58144   0.05087   0.19273
  41        4PZ        -0.96153  -0.11999   0.01926  -1.48495  -1.53801
  42        5S         -1.01943  -0.50793  -0.19203   5.31546   0.11503
  43        5PX         0.26613  -0.27914  -0.51743   0.58398   0.02581
  44        5PY        -0.55248   0.48012  -0.18060  -0.91347   0.23137
  45        5PZ         0.74409   0.45374  -0.04345   0.10491   0.78788
  46        6D 0       -0.02803   0.01439  -0.00327  -0.01597  -0.01715
  47        6D+1       -0.00800   0.00657  -0.00291   0.02657  -0.01948
  48        6D-1        0.02344  -0.00854   0.00029  -0.02988   0.02720
  49        6D+2        0.01204   0.01693  -0.03703  -0.03145   0.02193
  50        6D-2        0.01537   0.01815   0.02970  -0.03822   0.03319
  51 5   H  1S         -0.09075  -0.05604   0.00321   0.03605   0.01830
  52        2S         -1.63294  -0.39068   0.00850   0.14161  -0.18362
  53        3S          1.34007   1.04866  -0.07045  -1.54592  -0.35356
  54 6   H  1S         -0.02946  -0.06834   0.00073  -0.00323   0.02879
  55        2S         -0.62980  -0.58054  -0.08642   0.31472  -0.47222
  56        3S          1.19561   1.42297  -0.00783   0.40516  -0.07176
                          31        32        33        34        35
                           V         V         V         V         V
     Eigenvalues --     0.66630   0.72207   0.77637   0.92927   1.22377
   1 1   C  1S          0.00283  -0.00801   0.06503  -0.09289  -0.00020
   2        2S          0.00591  -0.02317   0.13893  -0.19254  -0.00025
   3        2PX        -0.17915   0.11248  -0.01011  -0.05177  -0.06680
   4        2PY        -0.10065  -0.21607   0.03039   0.09022  -0.03830
   5        2PZ         0.01853   0.01213   0.01545  -0.01974  -0.01189
   6        3S         -0.04955   0.32753  -1.13866   1.73843   0.00149
   7        3PX        -0.66406   0.31409   0.01425   0.02777  -0.10816
   8        3PY        -0.36238  -0.59521   0.00899  -0.08673  -0.05192
   9        3PZ         0.06684   0.10662   0.06338  -0.05446  -0.02594
  10        4S          0.09211   0.56344   1.60816  -6.31984   0.01576
  11        4PX         1.46507  -0.71784  -0.08043   1.14505  -0.00960
  12        4PY         0.81941   1.28487   0.11214  -2.21308  -0.00491
  13        4PZ        -0.17286  -0.43361   0.06222  -0.00724   0.02296
  14        5S          0.43170   2.60561  -1.72741  13.46604   0.14319
  15        5PX        -0.98672  -0.20686   0.24831  -1.75195   0.00820
  16        5PY        -0.38683   0.38838  -0.59112   3.40005   0.05174
  17        5PZ         0.12300   0.44815   0.17195   0.04509   0.01200
  18        6D 0       -0.00288  -0.01584   0.00873   0.12783  -0.01697
  19        6D+1       -0.00160   0.00623  -0.01361   0.02503   0.04837
  20        6D-1        0.00181   0.01881   0.01793  -0.00511   0.12686
  21        6D+2       -0.00077  -0.05345   0.05267   0.05525  -0.45887
  22        6D-2       -0.00210  -0.08022   0.07585   0.08137   0.32839
  23 2   H  1S         -0.00001  -0.00000   0.00000  -0.00000   0.00000
  24        2S         -0.00006  -0.00001   0.00001  -0.00000   0.00000
  25        3S          0.00012   0.00002  -0.00002   0.00001  -0.00000
  26 3   H  1S          0.00001   0.00000  -0.00000   0.00000  -0.00000
  27        2S          0.00008   0.00001  -0.00001   0.00001  -0.00000
  28        3S         -0.00015  -0.00003   0.00002  -0.00001   0.00000
  29 4   C  1S          0.00131  -0.01305   0.09371   0.07712  -0.00067
  30        2S          0.00247  -0.02189   0.19639   0.15761  -0.00120
  31        2PX         0.14510   0.11443   0.03004  -0.04526  -0.05199
  32        2PY         0.06498  -0.22920  -0.06789   0.09292  -0.02480
  33        2PZ        -0.02868   0.05282   0.04977   0.00358  -0.01187
  34        3S         -0.01021   0.07492  -1.55518  -1.41360   0.00927
  35        3PX         0.50338   0.35436   0.08648   0.06029  -0.10691
  36        3PY         0.24847  -0.71669  -0.19018  -0.08625  -0.04993
  37        3PZ        -0.11324   0.21401   0.17132  -0.00018  -0.01990
  38        4S         -0.14691  -0.62720   2.30019   6.03482  -0.01387
  39        4PX        -1.22526  -0.79593  -0.22906   1.06430   0.03124
  40        4PY        -0.67360   1.63792   0.51319  -2.08760   0.03431
  41        4PZ         0.31963  -0.29425  -0.54743  -0.01528  -0.01176
  42        5S         -0.49807  -1.70436   1.30238 -13.26098  -0.13536
  43        5PX         0.81026  -0.24947  -0.09478  -1.69659  -0.00967
  44        5PY         0.49128   0.56926   0.34047   3.30909   0.01182
  45        5PZ        -0.07613  -0.58196  -0.61753  -0.07156   0.01641
  46        6D 0        0.00620   0.05925   0.03007  -0.05988  -0.00154
  47        6D+1        0.00175   0.01330   0.01389   0.00603   0.21506
  48        6D-1       -0.00281  -0.00950  -0.03027   0.01707   0.00624
  49        6D+2       -0.00830   0.02941   0.03728  -0.09338   0.50206
  50        6D-2        0.01350   0.04138   0.05238  -0.13435  -0.35116
  51 5   H  1S         -0.00603   0.04632   0.07317   0.00844  -0.00064
  52        2S          0.04738   0.46430   0.33986  -0.20531  -0.04218
  53        3S          0.23712  -1.71959  -2.12671   0.04810   0.04646
  54 6   H  1S          0.00185   0.01032  -0.01688  -0.01847  -0.01487
  55        2S         -0.00941   0.46863  -0.39500   0.49241   0.03655
  56        3S         -0.09271  -0.23777   0.56784  -0.39883  -0.06447
                          36        37        38        39        40
                           V         V         V         V         V
     Eigenvalues --     1.25953   1.30075   1.44169   1.54726   1.65620
   1 1   C  1S         -0.00141  -0.00860   0.00517  -0.00137  -0.01303
   2        2S         -0.00296  -0.01874   0.01200  -0.00338  -0.02866
   3        2PX         0.01202   0.00961   0.01076   0.00841   0.00021
   4        2PY         0.00301  -0.00242   0.00406   0.00359   0.00573
   5        2PZ        -0.02232  -0.04705  -0.05745   0.02402   0.01255
   6        3S          0.03296   0.21121  -0.18173   0.06968   0.35113
   7        3PX         0.03205   0.00673  -0.01937   0.00835  -0.02267
   8        3PY         0.01484   0.00128   0.04070  -0.02617   0.05140
   9        3PZ        -0.04198  -0.07198  -0.12476   0.04781  -0.00937
  10        4S         -0.11868  -0.61371   1.11873  -0.54090  -0.96876
  11        4PX         0.00141   0.07106  -0.16982   0.08895   0.12153
  12        4PY        -0.05125  -0.22249   0.38031  -0.18682  -0.39383
  13        4PZ         0.01153  -0.09437   0.65312  -0.32376  -0.27159
  14        5S          0.38616   0.50678   0.02833   0.08609   1.44788
  15        5PX        -0.04129  -0.06536  -0.01763   0.00108  -0.13901
  16        5PY         0.10505   0.13567   0.03223   0.00510   0.37410
  17        5PZ        -0.01640  -0.04025  -0.17214   0.13249   0.21783
  18        6D 0       -0.15547  -0.11904   0.42485  -0.03175  -0.81344
  19        6D+1        0.41865  -0.46719  -0.35230  -0.57411  -0.27102
  20        6D-1        0.43050   0.32473   0.21041  -0.47205   0.07880
  21        6D+2        0.16356   0.03064  -0.09268   0.03694   0.26266
  22        6D-2       -0.02144   0.01848  -0.26601   0.01024   0.35039
  23 2   H  1S          0.00000   0.00000  -0.00000   0.00000   0.00000
  24        2S          0.00000   0.00000  -0.00000  -0.00000  -0.00000
  25        3S         -0.00000  -0.00000   0.00000  -0.00000  -0.00000
  26 3   H  1S         -0.00000  -0.00000   0.00000  -0.00000  -0.00000
  27        2S         -0.00000  -0.00000   0.00000   0.00000   0.00000
  28        3S          0.00000   0.00000  -0.00000   0.00000   0.00000
  29 4   C  1S         -0.00092   0.00063  -0.00080   0.00067   0.00098
  30        2S         -0.00174   0.00217  -0.00317   0.00225   0.00116
  31        2PX         0.02050  -0.00303   0.00202   0.01430   0.00177
  32        2PY         0.01397  -0.00104   0.02232  -0.00856   0.00828
  33        2PZ        -0.03062  -0.05863  -0.04603   0.01981  -0.01203
  34        3S          0.00727  -0.06023   0.01577  -0.01428  -0.03173
  35        3PX         0.01837   0.00259  -0.02880   0.01435   0.00827
  36        3PY         0.02467   0.01295   0.07253  -0.03963  -0.00868
  37        3PZ        -0.04543  -0.09049  -0.08967   0.04462  -0.01543
  38        4S          0.06375   0.65845  -0.30728   0.14015   0.80355
  39        4PX         0.02739   0.01277  -0.34070   0.19689   0.07451
  40        4PY        -0.03295   0.02105   0.77879  -0.40719  -0.05906
  41        4PZ        -0.01438  -0.23969  -0.66986   0.36708  -0.14184
  42        5S         -0.44438  -0.65734  -0.20389   0.07112  -1.31960
  43        5PX        -0.04401  -0.05342   0.04538  -0.04002  -0.13622
  44        5PY         0.04590   0.08520  -0.12067   0.08083   0.20889
  45        5PZ         0.07580   0.11631   0.21847  -0.14250   0.01193
  46        6D 0       -0.18088  -0.38702   0.56812  -0.31904   0.50655
  47        6D+1        0.62493  -0.05713   0.39617   0.52762   0.03922
  48        6D-1        0.10296  -0.57011  -0.15432   0.41244   0.03513
  49        6D+2       -0.07420   0.10705  -0.20796   0.08887  -0.14164
  50        6D-2        0.17766   0.18272  -0.20084   0.12604  -0.18123
  51 5   H  1S         -0.00127   0.01231   0.05971  -0.05259   0.04599
  52        2S         -0.13522  -0.55909  -1.07503   0.63965  -0.47692
  53        3S          0.20902   0.25154   0.28697  -0.21631   0.21771
  54 6   H  1S         -0.01094  -0.01631  -0.05959   0.01620  -0.09664
  55        2S          0.06040   0.30874  -0.39858   0.23880   0.94939
  56        3S         -0.05689   0.00965   0.03294  -0.10862  -0.64509
                          41        42        43        44        45
                           V         V         V         V         V
     Eigenvalues --     1.75338   1.92237   1.98469   2.18498   2.30723
   1 1   C  1S         -0.02622   0.00777  -0.00009  -0.02556   0.00000
   2        2S         -0.06596   0.01855  -0.00029  -0.05093   0.00000
   3        2PX         0.01646  -0.00941  -0.11782  -0.17340   0.00002
   4        2PY        -0.03658   0.00585  -0.05436   0.35743   0.00001
   5        2PZ        -0.00564   0.12130  -0.00778   0.03922   0.00000
   6        3S          0.58565  -0.20597   0.00966   0.09342  -0.00001
   7        3PX        -0.21767   0.04003   0.04323  -0.14575  -0.00001
   8        3PY         0.42716  -0.07743   0.01486   0.24996  -0.00001
   9        3PZ         0.01937  -0.01844   0.00357  -0.08447   0.00000
  10        4S          0.02222   0.35747  -0.05529   2.95015  -0.00001
  11        4PX         0.20463  -0.08120  -0.43545  -0.77561  -0.00001
  12        4PY        -0.39059   0.16864  -0.24377   1.51827  -0.00002
  13        4PZ         0.03839   0.38380  -0.06762  -0.08321  -0.00001
  14        5S         -1.24948  -1.43881  -0.01010  -2.34973  -0.00005
  15        5PX         0.01550   0.19050   0.20427   0.38601   0.00004
  16        5PY        -0.08514  -0.41589   0.09666  -0.73717   0.00001
  17        5PZ        -0.04523  -0.03305   0.03557   0.23172   0.00001
  18        6D 0        0.38413   0.04623  -0.01759  -0.52875   0.00000
  19        6D+1       -0.03488  -0.34031   0.04222   0.03927   0.00000
  20        6D-1        0.08095   0.71569  -0.04606  -0.07997  -0.00000
  21        6D+2        0.33588  -0.03329   0.78108  -0.54846   0.00001
  22        6D-2        0.46309  -0.12037  -0.54430  -0.75944   0.00000
  23 2   H  1S         -0.00000  -0.00000   0.00000  -0.00000  -1.08210
  24        2S          0.00000   0.00000  -0.00001   0.00001   1.68708
  25        3S          0.00000   0.00000   0.00000  -0.00000  -1.10101
  26 3   H  1S          0.00000   0.00000  -0.00001   0.00001   1.08158
  27        2S         -0.00000  -0.00000   0.00001  -0.00001  -1.68654
  28        3S         -0.00000  -0.00000  -0.00000   0.00000   1.10080
  29 4   C  1S         -0.02426   0.00297   0.00004   0.02943  -0.00000
  30        2S         -0.05956   0.01419   0.00046   0.06332  -0.00000
  31        2PX        -0.04203  -0.00186   0.14180  -0.19496   0.00001
  32        2PY         0.08066   0.02610   0.07710   0.36457   0.00000
  33        2PZ        -0.00557  -0.16402   0.00910   0.00326   0.00000
  34        3S          0.58146  -0.17237  -0.00700  -0.20439   0.00000
  35        3PX         0.21771   0.02856  -0.05250  -0.11712  -0.00001
  36        3PY        -0.43152  -0.08842  -0.03657   0.23287  -0.00001
  37        3PZ         0.03842   0.17220   0.00203   0.03811  -0.00000
  38        4S         -0.54194  -0.13390   0.03931  -2.81597   0.00002
  39        4PX        -0.37089   0.05006   0.46161  -0.78796   0.00002
  40        4PY         0.72336  -0.09692   0.21487   1.51339  -0.00001
  41        4PZ        -0.06716  -0.25706   0.04704   0.02260   0.00000
  42        5S          1.36328   1.93073   0.03815   2.70522   0.00003
  43        5PX         0.23903   0.07472  -0.20601   0.36053  -0.00002
  44        5PY        -0.41831  -0.06589  -0.10023  -0.66047  -0.00002
  45        5PZ        -0.13578  -0.23768  -0.03653  -0.21179  -0.00000
  46        6D 0        0.35002  -0.12802  -0.00427   0.47976  -0.00000
  47        6D+1       -0.04120  -0.40423   0.02013   0.00254   0.00000
  48        6D-1        0.08313   0.79775  -0.05403  -0.00648  -0.00000
  49        6D+2        0.40589   0.00609   0.75287   0.51744   0.00001
  50        6D-2        0.55955  -0.07877  -0.53317   0.73907  -0.00001
  51 5   H  1S         -0.12028  -0.56705  -0.02066  -0.14701   0.00000
  52        2S          0.39442   1.58138   0.05681   0.42745  -0.00001
  53        3S         -0.58465  -1.46090  -0.05316  -0.57266   0.00001
  54 6   H  1S          0.09375   0.04041  -0.01389  -0.26722   0.00001
  55        2S         -0.28686  -0.25411   0.06649   0.47649  -0.00000
  56        3S          0.34163   0.16858  -0.02765  -0.40524  -0.00000
                          46        47        48        49        50
                           V         V         V         V         V
     Eigenvalues --     2.42887   2.48032   2.57574   2.74576   2.86182
   1 1   C  1S         -0.00000   0.00821   0.00921   0.00041   0.01077
   2        2S         -0.00000   0.02199   0.01970   0.00068   0.02531
   3        2PX        -0.00001   0.12386   0.02718  -0.79119  -0.01034
   4        2PY        -0.00001  -0.11629   0.01097  -0.41391  -0.27914
   5        2PZ        -0.00000   0.25992  -0.54604  -0.04128   0.58539
   6        3S          0.00000  -0.02143  -0.11576  -0.00083  -0.13494
   7        3PX         0.00001  -0.10713   0.09302   0.90677   0.16175
   8        3PY         0.00001   0.01032  -0.21732   0.46751   0.07210
   9        3PZ        -0.00000  -0.51166   0.62529   0.04304  -0.68325
  10        4S          0.00000  -1.00520  -0.28734  -0.02863  -0.36506
  11        4PX         0.00001   0.31984   0.06035  -0.43926   0.07346
  12        4PY         0.00001  -0.56306  -0.07850  -0.24085  -0.31688
  13        4PZ         0.00000  -0.04071  -0.61620  -0.04391   0.26415
  14        5S          0.00003   2.44528  -1.51189  -0.16679   1.32713
  15        5PX        -0.00002  -0.24218   0.13946   0.14409  -0.17299
  16        5PY        -0.00000   0.60346  -0.39912   0.02205   0.42916
  17        5PZ        -0.00000   0.56085   0.18004  -0.00604   0.04178
  18        6D 0       -0.00000   0.07583   0.02135  -0.00080   0.06031
  19        6D+1       -0.00000   0.05969   0.15812   0.00220   0.02681
  20        6D-1        0.00000  -0.14088  -0.32438  -0.01705  -0.05067
  21        6D+2       -0.00000   0.12703   0.05768   0.08409   0.05891
  22        6D-2        0.00000   0.19602   0.14481  -0.05074   0.13715
  23 2   H  1S         -1.13014   0.00000  -0.00000  -0.00000   0.00000
  24        2S          1.23506   0.00000  -0.00000   0.00002  -0.00000
  25        3S         -0.48593  -0.00000   0.00000  -0.00003   0.00000
  26 3   H  1S         -1.13063   0.00001  -0.00000   0.00003  -0.00000
  27        2S          1.23588  -0.00001   0.00000  -0.00006   0.00000
  28        3S         -0.48653   0.00001  -0.00000   0.00005  -0.00000
  29 4   C  1S          0.00000  -0.00955  -0.00879  -0.00021  -0.01003
  30        2S          0.00000  -0.01518  -0.00300  -0.00043  -0.00692
  31        2PX        -0.00001  -0.00589  -0.04439  -0.85800  -0.19247
  32        2PY        -0.00000   0.01279   0.20291  -0.43590   0.45260
  33        2PZ        -0.00000  -0.19961  -0.47878  -0.08672   0.86874
  34        3S          0.00000   0.04476  -0.18118  -0.00102  -0.09156
  35        3PX         0.00001   0.10516   0.14863   0.99683   0.27865
  36        3PY         0.00000  -0.19802  -0.44592   0.49763  -0.66125
  37        3PZ         0.00000   0.30065   0.65151   0.10583  -1.01107
  38        4S         -0.00001   0.88794   0.62922   0.02937   0.60942
  39        4PX        -0.00001   0.20111   0.02928  -0.48333   0.00821
  40        4PY         0.00000  -0.40821  -0.02350  -0.24838   0.04491
  41        4PZ        -0.00000   0.05768  -0.07751  -0.05381   0.63617
  42        5S         -0.00003  -1.64834   1.80642   0.16149  -1.24120
  43        5PX         0.00001  -0.19993   0.05947   0.16328  -0.16156
  44        5PY         0.00001   0.38722  -0.01675   0.04931   0.27451
  45        5PZ         0.00000  -0.17062  -0.43131   0.01073  -0.31399
  46        6D 0        0.00000  -0.10830  -0.01259  -0.00171  -0.03850
  47        6D+1       -0.00000   0.05219   0.17045   0.00840   0.13018
  48        6D-1        0.00000  -0.14249  -0.37299  -0.00645  -0.27630
  49        6D+2       -0.00000  -0.09136  -0.17960  -0.04870  -0.19435
  50        6D-2        0.00001  -0.10830  -0.18661   0.02673  -0.18808
  51 5   H  1S         -0.00000  -0.37443  -1.15499  -0.02407  -0.69077
  52        2S          0.00000   0.58998   1.74171   0.03034   0.72702
  53        3S         -0.00001  -0.36584  -1.67709  -0.04168  -0.40601
  54 6   H  1S         -0.00001  -1.47647   0.34105  -0.03976   0.24225
  55        2S          0.00001   2.44538  -0.49765   0.04924  -0.24109
  56        3S         -0.00000  -1.96847   0.67758   0.02846  -0.03806
                          51        52        53        54        55
                           V         V         V         V         V
     Eigenvalues --     2.92544   2.96429   3.04738   3.53665  23.34136
   1 1   C  1S         -0.00126   0.00234   0.00473   0.06171  -1.41764
   2        2S         -0.00331   0.00633   0.00244   0.10532   1.51538
   3        2PX        -0.88165   0.00737  -0.46021  -0.37114   0.00453
   4        2PY        -0.37654  -0.30180   0.88234   0.72667  -0.00879
   5        2PZ         0.09244  -1.02412  -0.08553  -0.04916  -0.00041
   6        3S          0.01744  -0.04745   0.03897  -0.49822  -0.32994
   7        3PX         1.12499   0.00075   0.58985   1.05331  -0.00392
   8        3PY         0.52968   0.35902  -1.13805  -2.05323   0.00695
   9        3PZ        -0.12479   1.29148   0.09426   0.09597  -0.00042
  10        4S          0.05714   0.01709  -0.72107  -1.88736   0.31390
  11        4PX        -0.67542  -0.01519  -0.14392   0.07903  -0.02100
  12        4PY        -0.27211  -0.19616   0.30673  -0.18795   0.04626
  13        4PZ         0.09108  -0.81429  -0.14625  -0.04155   0.02480
  14        5S         -0.19923  -0.44285   1.74635   4.13675  -0.23340
  15        5PX         0.36144   0.07534  -0.10940  -0.49753   0.04031
  16        5PY         0.09969  -0.03348   0.22438   0.95591  -0.08430
  17        5PZ        -0.05075   0.32756   0.07275   0.01918   0.02759
  18        6D 0       -0.00140  -0.00875   0.12163   0.49710  -0.01099
  19        6D+1        0.00217  -0.09795   0.00722  -0.05183   0.00029
  20        6D-1       -0.02203   0.18938  -0.00118   0.07518   0.00256
  21        6D+2       -0.19234  -0.03875   0.12282   0.52512  -0.01879
  22        6D-2        0.11908  -0.00530   0.18462   0.73139  -0.02663
  23 2   H  1S         -0.00000  -0.00000   0.00000   0.00000  -0.00000
  24        2S          0.00001   0.00000  -0.00000  -0.00000   0.00000
  25        3S         -0.00002  -0.00001   0.00000   0.00000  -0.00000
  26 3   H  1S          0.00002   0.00001  -0.00000  -0.00000   0.00000
  27        2S         -0.00003  -0.00001   0.00000   0.00001  -0.00000
  28        3S          0.00003   0.00001  -0.00000  -0.00001   0.00000
  29 4   C  1S          0.00076   0.00173  -0.02237  -0.05546  -1.44593
  30        2S          0.00016   0.00423  -0.04501  -0.09765   1.54592
  31        2PX         0.83480   0.00847   0.28761  -0.45652  -0.00595
  32        2PY         0.33236   0.23360  -0.63460   0.91175   0.01271
  33        2PZ        -0.16522   0.66582   0.50010  -0.16816  -0.00502
  34        3S          0.00869   0.01358   0.22456   0.50363  -0.32953
  35        3PX        -1.09059  -0.05399  -0.16405   1.16141   0.00832
  36        3PY        -0.44317  -0.22168   0.41710  -2.28676  -0.01999
  37        3PZ         0.21205  -0.89867  -0.64174   0.25483   0.01563
  38        4S         -0.05066  -0.12272   0.20829   2.01603   0.23195
  39        4PX         0.61021   0.05201   0.29626   0.00673  -0.01445
  40        4PY         0.32648   0.07586  -0.66312   0.03523   0.03265
  41        4PZ        -0.15713   0.61909   0.51214  -0.21706  -0.03410
  42        5S          0.21486   0.34356  -1.62281  -4.06899   0.17079
  43        5PX        -0.30357   0.04688  -0.26993  -0.49660  -0.00415
  44        5PY        -0.19124  -0.20140   0.52528   0.97241   0.02012
  45        5PZ         0.05242  -0.22778  -0.07189  -0.06955  -0.05465
  46        6D 0        0.01159  -0.04721  -0.06037  -0.55154  -0.01667
  47        6D+1       -0.00025  -0.14015   0.04789  -0.04939  -0.00334
  48        6D-1       -0.01237   0.27235  -0.11611   0.11520   0.00779
  49        6D+2       -0.17323   0.00122  -0.13397  -0.47423  -0.01375
  50        6D-2        0.15669   0.05004  -0.15998  -0.69154  -0.02013
  51 5   H  1S          0.05827   0.09620  -0.49794   0.48355   0.00542
  52        2S         -0.07354  -0.02339   0.41428  -0.35285   0.04271
  53        3S         -0.02402   0.20681   0.20481  -0.19553  -0.16458
  54 6   H  1S         -0.01989  -0.45504  -0.14235  -0.07189  -0.00153
  55        2S          0.01045   0.50825   0.16278   0.17673  -0.02429
  56        3S          0.01738  -0.13710  -0.15483  -0.00359  -0.00274
                          56
                           V
     Eigenvalues --    23.88129
   1 1   C  1S         -1.45212
   2        2S          1.58646
   3        2PX        -0.03682
   4        2PY         0.07123
   5        2PZ        -0.00197
   6        3S         -0.43091
   7        3PX         0.15078
   8        3PY        -0.29269
   9        3PZ         0.00447
  10        4S          0.27425
  11        4PX        -0.04756
  12        4PY         0.09718
  13        4PZ         0.01022
  14        5S         -0.70187
  15        5PX         0.09179
  16        5PY        -0.17656
  17        5PZ        -0.00050
  18        6D 0        0.09308
  19        6D+1       -0.00151
  20        6D-1        0.00542
  21        6D+2        0.08865
  22        6D-2        0.12499
  23 2   H  1S         -0.00000
  24        2S          0.00000
  25        3S         -0.00000
  26 3   H  1S          0.00000
  27        2S         -0.00000
  28        3S          0.00000
  29 4   C  1S          1.42392
  30        2S         -1.55594
  31        2PX        -0.03664
  32        2PY         0.07126
  33        2PZ        -0.00077
  34        3S          0.42262
  35        3PX         0.15000
  36        3PY        -0.29091
  37        3PZ         0.00260
  38        4S         -0.27855
  39        4PX        -0.04560
  40        4PY         0.08574
  41        4PZ         0.00493
  42        5S          0.69535
  43        5PX         0.09403
  44        5PY        -0.18377
  45        5PZ         0.01330
  46        6D 0       -0.09094
  47        6D+1        0.00044
  48        6D-1       -0.00013
  49        6D+2       -0.08918
  50        6D-2       -0.12569
  51 5   H  1S          0.00906
  52        2S         -0.00496
  53        3S          0.02977
  54 6   H  1S         -0.01116
  55        2S         -0.00564
  56        3S         -0.01002
     Density Matrix:
                           1         2         3         4         5
   1 1   C  1S          0.66366
   2        2S          0.56703   0.50015
   3        2PX        -0.00093  -0.00187   0.05837
   4        2PY         0.00429   0.00739  -0.00487   0.07527
   5        2PZ         0.00632   0.00982   0.00561  -0.00651   0.05427
   6        3S         -0.10806  -0.18316   0.00567  -0.02166  -0.03088
   7        3PX        -0.00421  -0.00614   0.09130  -0.00505   0.00945
   8        3PY         0.01023   0.01546  -0.00517   0.11281  -0.01090
   9        3PZ         0.00531   0.00920   0.00950  -0.01075   0.08805
  10        4S         -0.11849  -0.18238   0.03402  -0.09136  -0.03190
  11        4PX        -0.00297  -0.00567   0.06689   0.01006   0.00027
  12        4PY         0.00787   0.01453   0.00897   0.06663   0.00236
  13        4PZ         0.00520   0.00881   0.00672  -0.00980   0.05828
  14        5S          0.03715   0.04773  -0.00913  -0.00020   0.00343
  15        5PX        -0.00641  -0.00866   0.00604   0.00097  -0.00165
  16        5PY         0.01318   0.01799  -0.00068   0.00670   0.00324
  17        5PZ        -0.00059  -0.00068   0.00104  -0.00081   0.00101
  18        6D 0       -0.00294  -0.00412   0.00455  -0.00789   0.00784
  19        6D+1       -0.00143  -0.00234   0.00359  -0.00177  -0.00084
  20        6D-1        0.00140   0.00239  -0.00124   0.00453   0.00548
  21        6D+2       -0.00038  -0.00014  -0.00410  -0.00907   0.00088
  22        6D-2        0.00025   0.00107   0.00804  -0.00264   0.00088
  23 2   H  1S          0.00000   0.00000   0.00000   0.00000   0.00000
  24        2S         -0.00000  -0.00000   0.00000   0.00000   0.00000
  25        3S          0.00000   0.00000   0.00000   0.00000   0.00000
  26 3   H  1S         -0.00000  -0.00000   0.00000   0.00000   0.00000
  27        2S          0.00000   0.00000   0.00000   0.00000   0.00000
  28        3S         -0.00000  -0.00000  -0.00000  -0.00000  -0.00000
  29 4   C  1S          0.00267   0.00433   0.01259  -0.02145  -0.00272
  30        2S          0.00427   0.00629   0.02029  -0.03448  -0.00457
  31        2PX        -0.00728  -0.01164   0.04031   0.05393  -0.01113
  32        2PY         0.01747   0.02799   0.04439  -0.02757   0.01793
  33        2PZ         0.00897   0.01472  -0.01621   0.02389   0.03852
  34        3S         -0.00938  -0.01237  -0.05905   0.09941   0.01339
  35        3PX        -0.01248  -0.01861   0.06545   0.08068  -0.01657
  36        3PY         0.02981   0.04511   0.06580  -0.03484   0.02687
  37        3PZ         0.01412   0.02326  -0.02357   0.03430   0.06058
  38        4S          0.02155   0.03418  -0.05175   0.08291   0.02048
  39        4PX        -0.00036  -0.00103   0.06305   0.06991  -0.01205
  40        4PY         0.00599   0.01055   0.05165  -0.02103   0.01640
  41        4PZ         0.01861   0.03013  -0.02373   0.03593   0.05541
  42        5S         -0.03969  -0.05275   0.01288  -0.01191  -0.00730
  43        5PX        -0.00440  -0.00588   0.01041   0.00378  -0.00186
  44        5PY         0.00856   0.01154  -0.00003   0.00480   0.00143
  45        5PZ         0.00373   0.00569  -0.00423   0.00549   0.00672
  46        6D 0        0.00204   0.00254   0.00117  -0.00247  -0.00039
  47        6D+1        0.00085   0.00135  -0.00098  -0.00196   0.00339
  48        6D-1       -0.00165  -0.00259  -0.00256   0.00225  -0.00474
  49        6D+2        0.00234   0.00303   0.00441   0.00191   0.00026
  50        6D-2        0.00329   0.00425  -0.00159  -0.00307   0.00010
  51 5   H  1S          0.00219   0.00344   0.01378  -0.02157  -0.00597
  52        2S          0.00329   0.00539   0.02260  -0.03528  -0.00188
  53        3S          0.00520   0.00712   0.00653  -0.01089   0.00921
  54 6   H  1S         -0.01378  -0.02188   0.01915  -0.02067   0.04647
  55        2S         -0.01517  -0.02435   0.03267  -0.03490   0.07889
  56        3S         -0.00024  -0.00040   0.01644  -0.02263   0.03676
                           6         7         8         9        10
   6        3S          0.54427
   7        3PX         0.01420   0.14301
   8        3PY        -0.03951  -0.00438   0.16938
   9        3PZ        -0.03482   0.01615  -0.01822   0.14333
  10        4S          0.49013   0.05516  -0.14186  -0.03826   0.52706
  11        4PX         0.01822   0.10525   0.01751   0.00120   0.03508
  12        4PY        -0.04643   0.01619   0.10045   0.00314  -0.09922
  13        4PZ        -0.03084   0.01114  -0.01587   0.09454  -0.02970
  14        5S         -0.09944  -0.01580   0.00153   0.00184  -0.09546
  15        5PX         0.01964   0.00973   0.00135  -0.00201   0.01958
  16        5PY        -0.04141  -0.00132   0.01069   0.00395  -0.04406
  17        5PZ         0.00099   0.00163  -0.00119   0.00166   0.00158
  18        6D 0        0.00917   0.00711  -0.01205   0.01309   0.01543
  19        6D+1        0.00672   0.00561  -0.00256  -0.00121   0.00907
  20        6D-1       -0.00751  -0.00171   0.00662   0.00883  -0.01245
  21        6D+2       -0.00104  -0.00676  -0.01376   0.00136   0.00600
  22        6D-2       -0.00503   0.01243  -0.00360   0.00133   0.00187
  23 2   H  1S          0.00000  -0.00000  -0.00000  -0.00000  -0.00000
  24        2S          0.00000  -0.00000  -0.00000  -0.00000  -0.00000
  25        3S         -0.00000   0.00000   0.00000   0.00000  -0.00000
  26 3   H  1S          0.00000  -0.00000  -0.00000  -0.00000  -0.00000
  27        2S         -0.00000   0.00000   0.00000  -0.00000  -0.00000
  28        3S          0.00000  -0.00000  -0.00000  -0.00000   0.00000
  29 4   C  1S         -0.01017   0.02080  -0.03558  -0.00423   0.02572
  30        2S         -0.01354   0.03200  -0.05426  -0.00707   0.04201
  31        2PX         0.03352   0.06544   0.08186  -0.01646  -0.00057
  32        2PY        -0.08062   0.06754  -0.03821   0.02631  -0.03141
  33        2PZ        -0.04463  -0.02388   0.03398   0.06245  -0.07459
  34        3S          0.02278  -0.08861   0.14753   0.02042  -0.12885
  35        3PX         0.04950   0.10598   0.12261  -0.02444   0.00131
  36        3PY        -0.12185   0.10025  -0.04747   0.03934  -0.05552
  37        3PZ        -0.07079  -0.03468   0.04863   0.09821  -0.11352
  38        4S         -0.09831  -0.07911   0.12443   0.02902  -0.20873
  39        4PX         0.00520   0.10125   0.10715  -0.01863  -0.02971
  40        4PY        -0.03454   0.07973  -0.02889   0.02532   0.00548
  41        4PZ        -0.08911  -0.03536   0.05188   0.08877  -0.13267
  42        5S          0.11661   0.02130  -0.01959  -0.00777   0.12415
  43        5PX         0.01324   0.01660   0.00581  -0.00246   0.01377
  44        5PY        -0.02619  -0.00026   0.00778   0.00135  -0.02929
  45        5PZ        -0.01548  -0.00641   0.00797   0.01066  -0.02151
  46        6D 0       -0.00499   0.00163  -0.00349  -0.00088  -0.00177
  47        6D+1       -0.00408  -0.00161  -0.00296   0.00535  -0.00348
  48        6D-1        0.00765  -0.00387   0.00315  -0.00737   0.00583
  49        6D+2       -0.00629   0.00691   0.00307   0.00033  -0.00470
  50        6D-2       -0.00880  -0.00270  -0.00456  -0.00007  -0.00473
  51 5   H  1S         -0.01042   0.02002  -0.03026  -0.01146   0.01003
  52        2S         -0.01711   0.03318  -0.05017  -0.00530   0.01821
  53        3S         -0.01735   0.00971  -0.01586   0.01429  -0.00565
  54 6   H  1S          0.05674   0.03098  -0.03257   0.07773   0.06353
  55        2S          0.06163   0.05239  -0.05446   0.13092   0.07831
  56        3S         -0.00196   0.02566  -0.03430   0.05999   0.01680
                          11        12        13        14        15
  11        4PX         0.08078
  12        4PY         0.02294   0.06447
  13        4PZ         0.00066  -0.00019   0.06283
  14        5S         -0.01220  -0.00069   0.00522   0.04591
  15        5PX         0.00773   0.00154  -0.00192  -0.00762   0.00174
  16        5PY        -0.00040   0.00735   0.00351   0.01294  -0.00207
  17        5PZ         0.00104  -0.00056   0.00120   0.00064  -0.00001
  18        6D 0        0.00326  -0.00561   0.00870  -0.00266   0.00050
  19        6D+1        0.00409  -0.00126  -0.00075  -0.00102   0.00051
  20        6D-1       -0.00116   0.00483   0.00558  -0.00008  -0.00023
  21        6D+2       -0.00683  -0.00881   0.00119   0.00068  -0.00065
  22        6D-2        0.00860  -0.00015   0.00105  -0.00081   0.00066
  23 2   H  1S          0.00000   0.00000   0.00000   0.00000  -0.00000
  24        2S          0.00000   0.00000   0.00000   0.00000  -0.00000
  25        3S          0.00000   0.00000   0.00000   0.00000  -0.00000
  26 3   H  1S          0.00000   0.00000   0.00000   0.00000  -0.00000
  27        2S          0.00000   0.00000   0.00000   0.00000  -0.00000
  28        3S         -0.00000   0.00000   0.00000   0.00000  -0.00000
  29 4   C  1S          0.00897  -0.01321  -0.00375  -0.02713   0.00376
  30        2S          0.01470  -0.02162  -0.00607  -0.03740   0.00539
  31        2PX         0.05966   0.05581  -0.01411  -0.02447   0.00819
  32        2PY         0.04371  -0.01195   0.02191   0.03067  -0.00175
  33        2PZ        -0.01875   0.02572   0.03896  -0.00756  -0.00149
  34        3S         -0.04408   0.06424   0.01692   0.08682  -0.01341
  35        3PX         0.09517   0.08488  -0.02109  -0.03877   0.01294
  36        3PY         0.06616  -0.01270   0.03286   0.04952  -0.00299
  37        3PZ        -0.02801   0.03814   0.06132  -0.01301  -0.00212
  38        4S         -0.04365   0.06013   0.02333   0.08888  -0.01510
  39        4PX         0.08898   0.07628  -0.01548  -0.02251   0.00991
  40        4PY         0.05470  -0.00640   0.02002   0.01789   0.00117
  41        4PZ        -0.02721   0.03803   0.05673   0.00461  -0.00430
  42        5S          0.01480  -0.01059  -0.00879  -0.04800   0.00826
  43        5PX         0.01322   0.00547  -0.00231  -0.00847   0.00220
  44        5PY         0.00062   0.00453   0.00191   0.01304  -0.00182
  45        5PZ        -0.00481   0.00565   0.00675   0.00064  -0.00069
  46        6D 0        0.00086  -0.00206  -0.00017   0.00322  -0.00039
  47        6D+1       -0.00180  -0.00176   0.00386   0.00330  -0.00064
  48        6D-1       -0.00225   0.00137  -0.00559  -0.00682   0.00083
  49        6D+2        0.00525   0.00332   0.00005  -0.00193   0.00056
  50        6D-2       -0.00283  -0.00242   0.00003   0.00008  -0.00033
  51 5   H  1S          0.01375  -0.02160  -0.00256   0.04153  -0.00413
  52        2S          0.02115  -0.03238   0.00307   0.05149  -0.00499
  53        3S          0.00459  -0.00759   0.01085   0.01060  -0.00133
  54 6   H  1S          0.01598  -0.01229   0.05088  -0.01244   0.00245
  55        2S          0.02651  -0.01915   0.08633  -0.01395   0.00287
  56        3S          0.01177  -0.01321   0.04055   0.00162  -0.00005
                          16        17        18        19        20
  16        5PY         0.00478
  17        5PZ         0.00010   0.00008
  18        6D 0       -0.00113   0.00027   0.00222
  19        6D+1       -0.00051   0.00009   0.00036   0.00035
  20        6D-1        0.00076  -0.00002   0.00019  -0.00036   0.00102
  21        6D+2       -0.00068  -0.00001   0.00064  -0.00012  -0.00037
  22        6D-2        0.00002   0.00012   0.00070   0.00045  -0.00023
  23 2   H  1S         -0.00000  -0.00000   0.00000   0.00000   0.00000
  24        2S         -0.00000  -0.00000   0.00000   0.00000   0.00000
  25        3S         -0.00000  -0.00000  -0.00000   0.00000   0.00000
  26 3   H  1S         -0.00000  -0.00000   0.00000  -0.00000   0.00000
  27        2S         -0.00000  -0.00000   0.00000   0.00000   0.00000
  28        3S         -0.00000  -0.00000   0.00000  -0.00000  -0.00000
  29 4   C  1S         -0.00704  -0.00083   0.00335   0.00069  -0.00117
  30        2S         -0.01013  -0.00105   0.00459   0.00111  -0.00186
  31        2PX        -0.00096  -0.00025  -0.00292   0.00179   0.00160
  32        2PY         0.00874   0.00179   0.00516   0.00255  -0.00156
  33        2PZ         0.00269  -0.00043   0.00191  -0.00292   0.00709
  34        3S          0.02534   0.00201  -0.01101  -0.00337   0.00547
  35        3PX        -0.00174  -0.00036  -0.00405   0.00295   0.00234
  36        3PY         0.01444   0.00275   0.00704   0.00373  -0.00205
  37        3PZ         0.00379  -0.00066   0.00339  -0.00445   0.01093
  38        4S          0.02865   0.00132  -0.01039  -0.00444   0.00645
  39        4PX         0.00235  -0.00008  -0.00373   0.00263   0.00207
  40        4PY         0.00524   0.00183   0.00583   0.00329  -0.00158
  41        4PZ         0.00814  -0.00028   0.00185  -0.00426   0.00994
  42        5S         -0.01499  -0.00050   0.00368   0.00173  -0.00135
  43        5PX        -0.00169  -0.00003   0.00037   0.00063  -0.00009
  44        5PY         0.00411   0.00024  -0.00093  -0.00019   0.00023
  45        5PZ         0.00121  -0.00011  -0.00002  -0.00069   0.00138
  46        6D 0        0.00066   0.00010   0.00006   0.00013  -0.00031
  47        6D+1        0.00077   0.00014   0.00045  -0.00007   0.00018
  48        6D-1       -0.00177  -0.00034  -0.00072  -0.00017  -0.00008
  49        6D+2        0.00008  -0.00005   0.00004   0.00011   0.00018
  50        6D-2       -0.00001  -0.00010   0.00003  -0.00018  -0.00002
  51 5   H  1S          0.00767   0.00174   0.00068   0.00215  -0.00417
  52        2S          0.00926   0.00238   0.00255   0.00301  -0.00524
  53        3S          0.00243   0.00060   0.00204   0.00044  -0.00016
  54 6   H  1S         -0.00405   0.00144   0.01048   0.00128   0.00288
  55        2S         -0.00421   0.00239   0.01704   0.00185   0.00502
  56        3S          0.00025   0.00119   0.00785   0.00080   0.00194
                          21        22        23        24        25
  21        6D+2        0.00151
  22        6D-2       -0.00026   0.00126
  23 2   H  1S         -0.00000   0.00000   0.05858
  24        2S         -0.00000   0.00000   0.10369   0.18352
  25        3S         -0.00000   0.00000   0.05628   0.09962   0.05408
  26 3   H  1S         -0.00000   0.00000   0.05857   0.10367   0.05628
  27        2S         -0.00000   0.00000   0.10366   0.18348   0.09960
  28        3S          0.00000  -0.00000   0.05609   0.09928   0.05389
  29 4   C  1S          0.00332   0.00460  -0.00000  -0.00000  -0.00000
  30        2S          0.00448   0.00620  -0.00000  -0.00000  -0.00000
  31        2PX        -0.01013   0.00383   0.00000  -0.00000   0.00000
  32        2PY        -0.00004   0.00719   0.00000   0.00000   0.00000
  33        2PZ        -0.00084  -0.00230   0.00000  -0.00000   0.00000
  34        3S         -0.01014  -0.01406   0.00000   0.00000   0.00000
  35        3PX        -0.01553   0.00649   0.00000  -0.00000   0.00000
  36        3PY        -0.00092   0.01037  -0.00000  -0.00000   0.00000
  37        3PZ        -0.00104  -0.00322   0.00000   0.00000   0.00000
  38        4S         -0.00741  -0.01059  -0.00000  -0.00000  -0.00000
  39        4PX        -0.01387   0.00679  -0.00000  -0.00000   0.00000
  40        4PY        -0.00166   0.00751   0.00000   0.00000   0.00000
  41        4PZ        -0.00151  -0.00342  -0.00000  -0.00000  -0.00000
  42        5S          0.00041   0.00150  -0.00000  -0.00000  -0.00000
  43        5PX        -0.00130   0.00129   0.00000   0.00000   0.00000
  44        5PY        -0.00067  -0.00009   0.00000   0.00000   0.00000
  45        5PZ        -0.00017  -0.00055   0.00000   0.00000   0.00000
  46        6D 0        0.00019   0.00023  -0.00000  -0.00000  -0.00000
  47        6D+1        0.00031  -0.00012  -0.00000  -0.00000  -0.00000
  48        6D-1       -0.00001  -0.00031   0.00000   0.00000   0.00000
  49        6D+2       -0.00050   0.00069  -0.00000  -0.00000   0.00000
[...]
  45        5PZ         0.00000   0.00000   0.00058   0.00000   0.00000
  46        6D 0        0.00000   0.00000   0.00000   0.00000   0.00000
  47        6D+1        0.00000   0.00000   0.00000   0.00000   0.00000
  48        6D-1        0.00000   0.00000   0.00000   0.00000   0.00000
  49        6D+2        0.00000   0.00000   0.00000   0.00000   0.00000
  50        6D-2        0.00000   0.00000   0.00000   0.00000   0.00000
  51 5   H  1S          0.00048   0.00299   0.00277   0.01607   0.00287
  52        2S          0.00121   0.00757   0.00624   0.04055   0.00524
  53        3S          0.00015   0.00079   0.00016   0.00442   0.00077
  54 6   H  1S         -0.00000  -0.00000   0.00000  -0.00003  -0.00004
  55        2S         -0.00007  -0.00041   0.00041  -0.00072  -0.00062
  56        3S         -0.00022  -0.00075   0.00038  -0.00242  -0.00123
                          36        37        38        39        40
  36        3PY         0.16869
  37        3PZ         0.00000   0.12889
  38        4S          0.00000   0.00000   0.34119
  39        4PX         0.00000   0.00000   0.00000   0.14936
  40        4PY         0.06635   0.00000   0.00000   0.00000   0.06668
  41        4PZ         0.00000   0.07221   0.00000   0.00000   0.00000
  42        5S          0.00000   0.00000  -0.08284   0.00000   0.00000
  43        5PX         0.00000   0.00000   0.00000   0.01186   0.00000
  44        5PY         0.00358   0.00000   0.00000   0.00000   0.00447
  45        5PZ         0.00000   0.00355   0.00000   0.00000   0.00000
  46        6D 0        0.00000   0.00000   0.00000   0.00000   0.00000
  47        6D+1        0.00000   0.00000   0.00000   0.00000   0.00000
  48        6D-1        0.00000   0.00000   0.00000   0.00000   0.00000
  49        6D+2        0.00000   0.00000   0.00000   0.00000   0.00000
  50        6D-2        0.00000   0.00000   0.00000   0.00000   0.00000
  51 5   H  1S          0.01828   0.01712   0.01843   0.00158   0.01044
  52        2S          0.03327   0.02788   0.04363   0.00380   0.02489
  53        3S          0.00419   0.00080   0.00812   0.00099   0.00508
  54 6   H  1S         -0.00027   0.00036  -0.00101  -0.00048  -0.00258
  55        2S         -0.00374   0.00416  -0.00409  -0.00202  -0.01095
  56        3S         -0.00430   0.00250  -0.00348  -0.00244  -0.00807
                          41        42        43        44        45
  41        4PZ         0.10124
  42        5S          0.00000   0.05293
  43        5PX         0.00000   0.00000   0.00326
  44        5PY         0.00000   0.00000   0.00000   0.00424
  45        5PZ         0.00930   0.00000   0.00000   0.00000   0.00208
  46        6D 0        0.00000   0.00000   0.00000   0.00000   0.00000
  47        6D+1        0.00000   0.00000   0.00000   0.00000   0.00000
  48        6D-1        0.00000   0.00000   0.00000   0.00000   0.00000
  49        6D+2        0.00000   0.00000   0.00000   0.00000   0.00000
  50        6D-2        0.00000   0.00000   0.00000   0.00000   0.00000
  51 5   H  1S          0.01106  -0.00629   0.00021   0.00117   0.00074
  52        2S          0.02343  -0.01904   0.00056   0.00325   0.00216
  53        3S          0.00024  -0.00719   0.00018   0.00086   0.00017
  54 6   H  1S          0.00296   0.00156   0.00013   0.00031   0.00023
  55        2S          0.01231   0.00461   0.00038   0.00079   0.00108
  56        3S          0.00620  -0.00009  -0.00007  -0.00014   0.00067
                          46        47        48        49        50
  46        6D 0        0.00038
  47        6D+1        0.00000   0.00051
  48        6D-1        0.00000   0.00000   0.00188
  49        6D+2        0.00000   0.00000   0.00000   0.00070
  50        6D-2        0.00000   0.00000   0.00000   0.00000   0.00053
  51 5   H  1S          0.00060   0.00045   0.00304   0.00034   0.00024
  52        2S          0.00054   0.00041   0.00275   0.00027   0.00018
  53        3S          0.00002   0.00002   0.00013   0.00001   0.00000
  54 6   H  1S         -0.00000   0.00002   0.00005   0.00000   0.00001
  55        2S         -0.00000   0.00021   0.00051  -0.00000   0.00006
  56        3S          0.00001   0.00009   0.00022  -0.00000   0.00000
                          51        52        53        54        55
  51 5   H  1S          0.07320
  52        2S          0.06579   0.12019
  53        3S          0.00598   0.01752   0.00622
  54 6   H  1S          0.00000   0.00000   0.00011   0.05733
  55        2S          0.00000   0.00005   0.00080   0.06516   0.15032
  56        3S          0.00011   0.00083   0.00164   0.01484   0.05265
                          56
  56        3S          0.03239
     Gross orbital populations:
                           1
   1 1   C  1S          1.10612
   2        2S          0.88403
   3        2PX         0.14930
   4        2PY         0.19409
   5        2PZ         0.14321
   6        3S          0.87229
   7        3PX         0.37121
   8        3PY         0.45699
   9        3PZ         0.38945
  10        4S          0.77483
  11        4PX         0.28807
  12        4PY         0.23711
  13        4PZ         0.28686
  14        5S         -0.03338
  15        5PX         0.02280
  16        5PY         0.03682
  17        5PZ         0.00213
  18        6D 0        0.01252
  19        6D+1        0.00151
  20        6D-1        0.00573
  21        6D+2        0.01012
  22        6D-2        0.00914
  23 2   H  1S          0.20236
  24        2S          0.52548
  25        3S          0.27279
  26 3   H  1S          0.20229
  27        2S          0.52527
  28        3S          0.27181
  29 4   C  1S          1.10552
  30        2S          0.88455
  31        2PX         0.20107
  32        2PY         0.19583
  33        2PZ         0.13854
  34        3S          0.84941
  35        3PX         0.47981
  36        3PY         0.46694
  37        3PZ         0.34961
  38        4S          0.60623
  39        4PX         0.40037
  40        4PY         0.21625
  41        4PZ         0.31927
  42        5S         -0.04451
  43        5PX         0.03666
  44        5PY         0.03825
  45        5PZ         0.02587
  46        6D 0        0.00298
  47        6D+1        0.00276
  48        6D-1        0.01134
  49        6D+2        0.00543
  50        6D-2        0.00491
  51 5   H  1S          0.24996
  52        2S          0.41270
  53        3S          0.04625
  54 6   H  1S          0.19260
  55        2S          0.43851
  56        3S          0.14195
          Condensed to atoms (all electrons):
               1          2          3          4          5          6
     1  C    5.232335   0.000000   0.000000   0.713383   0.001270   0.273960
     2  H    0.000000   0.641921   0.358707  -0.000000  -0.000000   0.000000
     3  H    0.000000   0.358707   0.640666  -0.000000  -0.000000   0.000000
     4  C    0.713383  -0.000000  -0.000000   5.267586   0.325903  -0.009786
     5  H    0.001270  -0.000000  -0.000000   0.325903   0.378188   0.003543
     6  H    0.273960   0.000000   0.000000  -0.009786   0.003543   0.505347
 Mulliken charges:
               1
     1  C   -0.220948
     2  H   -0.000628
     3  H    0.000628
     4  C   -0.297085
     5  H    0.291096
     6  H    0.226937
 Sum of Mulliken charges =  -0.00000
 Mulliken charges with hydrogens summed into heavy atoms:
               1
     1  C    0.005989
     4  C   -0.005989
 Electronic spatial extent (au):  <R**2>=            913.6775
 Charge=             -0.0000 electrons
 Dipole moment (field-independent basis, Debye):
    X=             -0.1993    Y=              1.4036    Z=              0.3057  Tot=              1.4502
 Quadrupole moment (field-independent basis, Debye-Ang):
   XX=            -16.7015   YY=            -13.7263   ZZ=            -13.4498
   XY=             -0.3081   XZ=              1.2382   YZ=             -1.5417
 Traceless Quadrupole moment (field-independent basis, Debye-Ang):
   XX=             -2.0756   YY=              0.8995   ZZ=              1.1761
   XY=             -0.3081   XZ=              1.2382   YZ=             -1.5417
 Octapole moment (field-independent basis, Debye-Ang**2):
  XXX=             17.6949  YYY=             31.2291  ZZZ=              7.2131  XYY=              7.6489
  XXY=              1.7940  XXZ=              6.4282  XZZ=             13.0930  YZZ=              9.1293
  YYZ=             -0.2353  XYZ=              1.7768
 Hexadecapole moment (field-independent basis, Debye-Ang**3):
 XXXX=           -855.0746 YYYY=           -617.4237 ZZZZ=            -59.0863 XXXY=           -267.2888
 XXXZ=           -127.5002 YYYX=           -358.0868 YYYZ=            -78.1457 ZZZX=            -92.1361
 ZZZY=            -66.8865 XXYY=           -235.9492 XXZZ=           -191.7603 YYZZ=           -112.7942
 XXYZ=            -43.4960 YYXZ=            -45.9669 ZZXY=           -127.0680
 N-N= 2.336031979489D+01 E-N=-2.273028208020D+02  KE= 7.719111530380D+01
 Orbital energies and kinetic energies (alpha):
                                 1                 2
   1         O               -10.367659         15.990277
   2         O               -10.365231         15.997808
   3         O                -0.839486          1.512034
   4         O                -0.648887          1.226695
   5         O                -0.471957          0.472839
   6         O                -0.465561          1.097898
   7         O                -0.408245          1.243083
   8         O                -0.360993          1.054924
   9         V                -0.061515          1.143181
  10         V                 0.040347          1.073593
  11         V                 0.076174          0.293728
  12         V                 0.083290          0.421781
  13         V                 0.083320          0.483045
  14         V                 0.108997          0.223499
  15         V                 0.123441          0.243620
  16         V                 0.134504          0.251172
  17         V                 0.153658          0.264950
  18         V                 0.171548          0.478528
  19         V                 0.184538          0.652251
  20         V                 0.219271          0.478874
  21         V                 0.238532          0.720428
  22         V                 0.300171          0.523010
  23         V                 0.373316          1.326680
  24         V                 0.471377          0.954513
  25         V                 0.496461          1.076918
  26         V                 0.521973          0.952539
  27         V                 0.582654          1.363672
  28         V                 0.613518          1.429892
  29         V                 0.633004          1.517594
  30         V                 0.645190          1.489025
  31         V                 0.666299          1.589791
  32         V                 0.722068          2.255882
  33         V                 0.776373          2.380485
  34         V                 0.929269          2.567014
  35         V                 1.223772          2.127698
  36         V                 1.259533          2.074390
  37         V                 1.300748          2.160571
  38         V                 1.441693          2.284414
  39         V                 1.547263          2.375445
  40         V                 1.656195          2.494428
  41         V                 1.753378          2.786858
  42         V                 1.922367          2.999301
  43         V                 1.984694          2.964066
  44         V                 2.184976          4.058218
  45         V                 2.307234          3.827632
  46         V                 2.428867          3.906956
  47         V                 2.480319          4.136275
  48         V                 2.575738          4.801362
  49         V                 2.745759          6.301052
  50         V                 2.861816          6.066944
  51         V                 2.925436          6.335329
  52         V                 2.964287          6.314744
  53         V                 3.047385          6.679470
  54         V                 3.536653          6.715350
  55         V                23.341364         60.103962
  56         V                23.881294         60.242003
 Total kinetic energy from orbitals= 7.719111530380D+01
 Calling FoFJK, ICntrl=  10005127 FMM=F ISym2X=0 I1Cent= 0 IOpClX= 0 NMat=1 NMatS=1 NMatT=0.
 -------------------------------------------------------------------
 Center     Atomic                   Forces (Hartrees/Bohr)
 Number     Number              X              Y              Z
 -------------------------------------------------------------------
      1        6          -0.011409915    0.051343269    0.078146457
      2        1           0.077865325    0.020346464   -0.034498688
      3        1          -0.077864896   -0.020346433    0.034498756
      4        6           0.019169846   -0.017030051   -0.015535991
      5        1          -0.000785494   -0.016563153    0.005171434
      6        1          -0.006974866   -0.017750096   -0.067781968
 -------------------------------------------------------------------
 Cartesian Forces:  Max     0.078146457 RMS     0.041073172

 GradGradGradGradGradGradGradGradGradGradGradGradGradGradGradGradGradGrad
 Berny optimization.
 Search for a local minimum.
 Step number   1 out of a maximum of    2
 All quantities printed in internal units (Hartrees-Bohrs-Radians)
 Second derivative matrix not updated -- first step.
 The second derivative matrix:
                          X1        Y1        Z1        X2        Y2
           X1           0.09284
           Y1          -0.17433   0.34520
           Z1           0.01679   0.01747   0.19924
           X2           0.00000   0.00000   0.00000   1.00000
           Y2           0.00000   0.00000   0.00000   0.00000   1.00000
           Z2           0.00000   0.00000   0.00000   0.00000   0.00000
           X3           0.00000   0.00000   0.00000   0.00000   0.00000
           Y3           0.00000   0.00000   0.00000   0.00000   0.00000
           Z3           0.00000   0.00000   0.00000   0.00000   0.00000
           X4          -0.08538   0.16415   0.00619   0.00000   0.00000
           Y4           0.16928  -0.32376  -0.01400   0.00000   0.00000
           Z4           0.00854  -0.01527  -0.06360   0.00000   0.00000
           X5           0.00036   0.00001  -0.01019   0.00000   0.00000
           Y5          -0.00191  -0.00069   0.01802   0.00000   0.00000
           Z5          -0.00174  -0.00059   0.01869   0.00000   0.00000
           X6          -0.00782   0.01017  -0.01280   0.00000   0.00000
           Y6           0.00696  -0.02076  -0.02149   0.00000   0.00000
           Z6          -0.02360  -0.00161  -0.15433   0.00000   0.00000
                          Z2        X3        Y3        Z3        X4
           Z2           1.00000
           X3           0.00000   1.00000
           Y3           0.00000   0.00000   1.00000
           Z3           0.00000   0.00000   0.00000   1.00000
           X4           0.00000   0.00000   0.00000   0.00000   0.12557
           Y4           0.00000   0.00000   0.00000   0.00000  -0.21943
           Z4           0.00000   0.00000   0.00000   0.00000   0.04037
           X5           0.00000   0.00000   0.00000   0.00000  -0.03410
           Y5           0.00000   0.00000   0.00000   0.00000   0.05538
           Z5           0.00000   0.00000   0.00000   0.00000  -0.04753
           X6           0.00000   0.00000   0.00000   0.00000  -0.00609
           Y6           0.00000   0.00000   0.00000   0.00000  -0.00010
           Z6           0.00000   0.00000   0.00000   0.00000   0.00097
                          Y4        Z4        X5        Y5        Z5
           Y4           0.46396
           Z4          -0.11843   0.26961
           X5           0.05347  -0.03821   0.03045
           Y5          -0.14049   0.11375  -0.05518   0.14030
           Z5           0.13190  -0.20771   0.04892  -0.13149   0.18908
           X6          -0.00332  -0.01070   0.00329   0.00171   0.00035
           Y6           0.00028   0.01995   0.00169   0.00088   0.00018
           Z6           0.00053   0.00170  -0.00052  -0.00027  -0.00006
                          X6        Y6        Z6
           X6           0.01061
           Y6          -0.00855   0.01961
           Z6           0.02315   0.00136   0.15268
 ITU=  0
     Eigenvalues ---    0.00644   0.01974   0.03601   0.04400   0.09607
     Eigenvalues ---    0.29422   0.47159   0.87563   0.97609   0.98663
     Eigenvalues ---    0.99974   1.00000
 Quadratic step=9.292D-01 exceeds max=3.000D-01 adjusted using Lamda=-1.346D-01.
 Angle between NR and scaled steps=  39.85 degrees.
 Angle between quadratic step and forces=  34.68 degrees.
 Linear search not attempted -- first point.
 B after Tr=     0.000755    0.022207    0.031215
         Rot=    0.999985    0.004002    0.003849    0.000368 Ang=   0.64 deg.
 Variable       Old X    -DE/DX   Delta X   Delta X   Delta X     New X
                                 (Linear)    (Quad)   (Total)
    X1        1.85944  -0.01141   0.00000  -0.01538  -0.01732   1.84212
    Y1       -0.33168   0.05134   0.00000   0.07490   0.09835  -0.23332
    Z1        0.21315   0.07815   0.00000   0.10388   0.15133   0.36447
    X2      -16.73445   0.07787   0.00000   0.06738   0.07927 -16.65517
    Y2      -12.07059   0.02035   0.00000   0.01675   0.03041 -12.04018
    Z2       -2.55262  -0.03450   0.00000  -0.03088  -0.03140  -2.58402
    X3      -15.04782  -0.07786   0.00000  -0.07041  -0.05296 -15.10078
    Y3      -11.62995  -0.02035   0.00000  -0.01839  -0.01135 -11.64130
    Z3       -3.29988   0.03450   0.00000   0.02915   0.03735  -3.26252
    X4        0.61920   0.01917   0.00000   0.03144   0.03253   0.65173
    Y4        2.07029  -0.01703   0.00000   0.00722   0.03018   2.10048
    Z4        0.17303  -0.01554   0.00000  -0.01276   0.00683   0.17986
    X5        0.09730  -0.00079   0.00000  -0.02897  -0.01480   0.08250
    Y5        3.39566  -0.01656   0.00000  -0.08528  -0.07455   3.32110
    Z5       -1.38898   0.00517   0.00000  -0.02553  -0.02019  -1.40917
    X6        2.26451  -0.00697   0.00000  -0.00732  -0.02673   2.23778
    Y6       -0.33171  -0.01775   0.00000  -0.11423  -0.07305  -0.40476
    Z6        2.76319  -0.06778   0.00000  -0.19593  -0.14393   2.61926
         Item               Value     Threshold  Converged?
 Maximum Force            0.078146     0.000450     NO 
 RMS     Force            0.041073     0.000300     NO 
 Maximum Displacement     0.151325     0.001800     NO 
 RMS     Displacement     0.066817     0.001200     NO 
 Predicted change in Energy=-2.725110D-02
 GradGradGradGradGradGradGradGradGradGradGradGradGradGradGradGradGradGrad

 Unable to Open any file for archive entry.
 1\1\GINC-BHX0029\Force\RwB97XD TD-FC\6-311+G(d)\C2H4\BWEIGHT\05-Jan-20
 23\0\\# WB97XD/6-311+G* SCF=XQC TD=(singlets,nstates=2,root=1) FORCE n
 osym pop=full guess=read\\MD Step 1000\\0,1\C,0.98397243,-0.17551555,0
 .11279196\H,-8.85548803,-6.38748218,-1.35078773\H,-7.96296321,-6.15430
 436,-1.74621927\C,0.32766879,1.09555253,0.09156225\H,0.05148747,1.7969
 0361,-0.73501861\H,1.19832796,-0.17553435,1.46221598\\Version=ES64L-G1
 6RevC.01\HF=-78.3246463\RMSD=2.721e-10\RMSF=4.107e-02\Dipole=-0.211110
 1,0.447968,-0.0325276\PG=C01 [X(C2H4)]\\@
 The archive entry for this job was punched.


 MARY HAD A LITTLE LAMB
      HIS FEET WERE BLACK AS SOOT,
           AND EVERYWHERE THAT MARY WENT
                HIS SOOTY FOOT HE PUT.

                    -- NONAME
 Job cpu time:       0 days  0 hours  1 minutes  1.6 seconds.
 Elapsed time:       0 days  0 hours  2 minutes 51.3 seconds.
 File lengths (MBytes):  RWF=   1312 Int=      0 D2E=      0 Chk=     32 Scr=     32
 Normal termination of Gaussian 16 at Thu Jan  5 10:17:32 2023.
