 Entering Gaussian System, Link 0=g16
 Initial command:
 /software/gaussian/g16-c01/avx2/g16/l1.exe "/gpfs/fs2/scratch/bweight/software/many_molecule_many_mode_NAMD/src/NAMD/TEST_NVT/TRAJ/traj-24/G16/GS_NEW/Gau-17250.inp" -scrdir="/gpfs/fs2/scratch/bweight/software/many_molecule_many_mode_NAMD/src/NAMD/TEST_NVT/TRAJ/traj-24/G16/GS_NEW/"
 Entering Link 1 = /software/gaussian/g16-c01/avx2/g16/l1.exe PID=     17251.
  
 Copyright (c) 1988-2019, Gaussian, Inc.  All Rights Reserved.
  
 This is part of the Gaussian(R) 16 program.  It is based on
 the Gaussian(R) 09 system (copyright 2009, Gaussian, Inc.),
 the Gaussian(R) 03 system (copyright 2003, Gaussian, Inc.),
 the Gaussian(R) 98 system (copyright 1998, Gaussian, Inc.),
 the Gaussian(R) 94 system (copyright 1995, Gaussian, Inc.),
 the Gaussian 92(TM) system (copyright 1992, Gaussian, Inc.),
 the Gaussian 90(TM) system (copyright 1990, Gaussian, Inc.),
 the Gaussian 88(TM) system (copyright 1988, Gaussian, Inc.),
 the Gaussian 86(TM) system (copyright 1986, Carnegie Mellon
 University), and the Gaussian 82(TM) system (copyright 1983,
 Carnegie Mellon University). Gaussian is a federally registered
 trademark of Gaussian, Inc.
  
 This software contains proprietary and confidential information,
 including trade secrets, belonging to Gaussian, Inc.
  
 This software is provided under written license and may be
 used, copied, transmitted, or stored only in accord with that
 written license.
  
 The following legend is applicable only to US Government
 contracts under FAR:
  
                    RESTRICTED RIGHTS LEGEND
  
 Use, reproduction and disclosure by the US Government is
 subject to restrictions as set forth in subparagraphs (a)
 and (c) of the Commercial Computer Software - Restricted
 Rights clause in FAR 52.227-19.
  
 Gaussian, Inc.
 340 Quinnipiac St., Bldg. 40, Wallingford CT 06492
  
  
 ---------------------------------------------------------------
 Warning -- This program may not be used in any manner that
 competes with the business of Gaussian, Inc. or will provide
 assistance to any competitor of Gaussian, Inc.  The licensee
 of this program is prohibited from giving any competitor of
 Gaussian, Inc. access to this program.  By using this program,
 the user acknowledges that Gaussian, Inc. is engaged in the
 business of creating and licensing software in the field of
 computational chemistry and represents and warrants to the
 licensee that it is not a competitor of Gaussian, Inc. and that
 it will not use this program in any manner prohibited above.
 ---------------------------------------------------------------
  

 Cite this work as:
 Gaussian 16, Revision C.01,
 M. J. Frisch, G. W. Trucks, H. B. Schlegel, G. E. Scuseria, 
 M. A. Robb, J. R. Cheeseman, G. Scalmani, V. Barone, 
 G. A. Petersson, H. Nakatsuji, X. Li, M. Caricato, A. V. Marenich, 
 J. Bloino, B. G. Janesko, R. Gomperts, B. Mennucci, H. P. Hratchian, 
 J. V. Ortiz, A. F. Izmaylov, J. L. Sonnenberg, D. Williams-Young, 
 F. Ding, F. Lipparini, F. Egidi, J. Goings, B. Peng, A. Petrone, 
 T. Henderson, D. Ranasinghe, V. G. Zakrzewski, J. Gao, N. Rega, 
 G. Zheng, W. Liang, M. Hada, M. Ehara, K. Toyota, R. Fukuda, 
 J. Hasegawa, M. Ishida, T. Nakajima, Y. Honda, O. Kitao, H. Nakai, 
 T. Vreven, K. Throssell, J. A. Montgomery, Jr., J. E. Peralta, 
 F. Ogliaro, M. J. Bearpark, J. J. Heyd, E. N. Brothers, K. N. Kudin, 
 V. N. Staroverov, T. A. Keith, R. Kobayashi, J. Normand, 
 K. Raghavachari, A. P. Rendell, J. C. Burant, S. S. Iyengar, 
 J. Tomasi, M. Cossi, J. M. Millam, M. Klene, C. Adamo, R. Cammi, 
 J. W. Ochterski, R. L. Martin, K. Morokuma, O. Farkas, 
 J. B. Foresman, and D. J. Fox, Gaussian, Inc., Wallingford CT, 2019.
 
 ******************************************
 Gaussian 16:  ES64L-G16RevC.01  3-Jul-2019
                11-Jan-2023 
 ******************************************
 %oldchk=../GS_OLD/geometry.chk
 %chk=geometry.chk
 %nprocshared=4
 Will use up to    4 processors via shared memory.
 %mem=5GB
 Copying data from "../GS_OLD/geometry.chk" to current chk file "geometry.chk"
 IOpt=  2 FromEx=T IUOpen= 4 IOptOp= 5 NList=   0 IFRang= 0 IUIn= 4 IUOut= 2.
 -------------------------------------------------------
 # WB97XD/6-311G SCF=XQC FORCE nosym pop=full guess=read
 -------------------------------------------------------
 1/10=7,30=1,38=1/1,3;
 2/12=2,15=1,17=6,18=5,40=1/2;
 3/5=4,6=6,11=2,25=1,30=1,71=1,74=-58,116=-2/1,2,3;
 4/5=1/1;
 5/5=2,8=3,13=1,38=6/2,8;
 6/7=3,28=1/1;
 7/29=1,30=1/1,2,3,16;
 1/10=7,30=1/3;
 99//99;
 -----------
 MD Step 999
 -----------
 Symbolic Z-matrix:
 Charge =  0 Multiplicity = 1
 C                    -0.33574  -0.57992   0.00809 
 H                     0.21249  -1.52818  -0.02989 
 H                    -1.41694  -0.60071  -0.03259 
 C                     0.3324    0.57707   0.00628 
 H                    -0.16494   1.56938  -0.03504 
 H                     1.45087   0.63513  -0.03212 
 

 GradGradGradGradGradGradGradGradGradGradGradGradGradGradGradGradGradGrad
 Berny optimization.
 Initialization pass.
 Trust Radius=3.00D-01 FncErr=1.00D-07 GrdErr=1.00D-07 EigMax=2.50D+02 EigMin=1.00D-04
 Number of steps in this run=      2 maximum allowed number of steps=      2.
 GradGradGradGradGradGradGradGradGradGradGradGradGradGradGradGradGradGrad

                          Input orientation:                          
 ---------------------------------------------------------------------
 Center     Atomic      Atomic             Coordinates (Angstroms)
 Number     Number       Type             X           Y           Z
 ---------------------------------------------------------------------
      1          6           0       -0.335741   -0.579923    0.008093
      2          1           0        0.212493   -1.528184   -0.029889
      3          1           0       -1.416935   -0.600711   -0.032594
      4          6           0        0.332396    0.577072    0.006282
      5          1           0       -0.164936    1.569377   -0.035040
      6          1           0        1.450874    0.635127   -0.032122
 ---------------------------------------------------------------------
                    Distance matrix (angstroms):
                    1          2          3          4          5
     1  C    0.000000
     2  H    1.095994   0.000000
     3  H    1.082159   1.874900   0.000000
     4  C    1.336057   2.108978   2.109228   0.000000
     5  H    2.156508   3.120475   2.505353   1.110728   0.000000
     6  H    2.161009   2.492691   3.122759   1.120642   1.866460
                    6
     6  H    0.000000
 Symmetry turned off by external request.
 Stoichiometry    C2H4
 Framework group  C1[X(C2H4)]
 Deg. of freedom    12
 Full point group                 C1      NOp   1
 Rotational constants (GHZ):         143.0663394          29.7062760          24.6115732
 Standard basis: 6-311G (5D, 7F)
    38 basis functions,    72 primitive gaussians,    38 cartesian basis functions
     8 alpha electrons        8 beta electrons
       nuclear repulsion energy        33.0621361962 Hartrees.
 NAtoms=    6 NActive=    6 NUniq=    6 SFac= 1.00D+00 NAtFMM=   60 NAOKFM=F Big=F
 Integral buffers will be    131072 words long.
 Raffenetti 2 integral format.
 Two-electron integral symmetry is turned off.
 Nuclear repulsion after empirical dispersion term =       33.0612952670 Hartrees.
 One-electron integrals computed using PRISM.
 NBasis=    38 RedAO= T EigKep=  6.39D-03  NBF=    38
 NBsUse=    38 1.00D-06 EigRej= -1.00D+00 NBFU=    38
 Initial guess from the checkpoint file:  "geometry.chk"
 B after Tr=    -0.000190   -0.000291   -0.000419
         Rot=    1.000000   -0.000001    0.000002    0.000006 Ang=  -0.00 deg.
 Keep R1 ints in memory in canonical form, NReq=4036876.
 Requested convergence on RMS density matrix=1.00D-08 within  32 cycles.
 Requested convergence on MAX density matrix=1.00D-06.
 Requested convergence on             energy=1.00D-06.
 No special actions if energy rises.
 SCF Done:  E(RwB97XD) =  -78.5554352792     A.U. after    8 cycles
            NFock=  8  Conv=0.64D-08     -V/T= 2.0052
 QCSCF skips out because SCF is already converged.

 **********************************************************************

            Population analysis using the SCF Density.

 **********************************************************************

 Alpha  occ. eigenvalues --  -10.29168 -10.28727  -0.86409  -0.67154  -0.55872
 Alpha  occ. eigenvalues --   -0.50996  -0.43559  -0.35730
 Alpha virt. eigenvalues --    0.08001   0.14067   0.16405   0.16979   0.24077
 Alpha virt. eigenvalues --    0.37656   0.39194   0.39740   0.46277   0.48804
 Alpha virt. eigenvalues --    0.49347   0.59115   0.66449   0.69002   0.77138
 Alpha virt. eigenvalues --    0.77663   0.83955   0.95382   2.23219   2.28929
 Alpha virt. eigenvalues --    2.33302   2.40525   2.67147   2.81678   2.87903
 Alpha virt. eigenvalues --    2.95087   3.14099   3.31526  23.35085  23.70716
     Molecular Orbital Coefficients:
                           1         2         3         4         5
                           O         O         O         O         O
     Eigenvalues --   -10.29168 -10.28727  -0.86409  -0.67154  -0.55872
   1 1   C  1S          0.05708   0.56049  -0.08878   0.06630  -0.00034
   2        2S          0.04718   0.46129  -0.14031   0.10621  -0.00056
   3        2PX         0.00016  -0.00000   0.02601   0.03841   0.13884
   4        2PY         0.00028   0.00000   0.04629   0.06264  -0.07222
   5        2PZ         0.00000  -0.00001  -0.00162   0.00251   0.00045
   6        3S          0.00060   0.01465   0.37621  -0.28979   0.00150
   7        3PX        -0.00065   0.00038   0.03424   0.06120   0.21708
   8        3PY        -0.00110   0.00068   0.06033   0.10106  -0.11413
   9        3PZ        -0.00001  -0.00004  -0.00271   0.00445   0.00067
  10        4S          0.00449  -0.01441   0.19175  -0.22642   0.00046
  11        4PX         0.00164  -0.00144   0.00479   0.02459   0.11259
  12        4PY         0.00278  -0.00242   0.00831   0.04152  -0.05996
  13        4PZ        -0.00000   0.00010  -0.00095   0.00222   0.00034
  14 2   H  1S         -0.00004  -0.00007   0.05281  -0.08811   0.10157
  15        2S         -0.00031   0.00009   0.05387  -0.10582   0.12873
  16        3S          0.00068   0.00175  -0.00161  -0.01544   0.04187
  17 3   H  1S         -0.00005  -0.00008   0.05415  -0.09258  -0.10587
  18        2S         -0.00030   0.00006   0.05475  -0.10996  -0.13283
  19        3S          0.00072   0.00178  -0.00168  -0.01643  -0.04305
  20 4   C  1S          0.56051  -0.05728  -0.08658  -0.06875   0.00001
  21        2S          0.46132  -0.04694  -0.13672  -0.11024   0.00003
  22        2PX        -0.00001  -0.00016  -0.02807   0.03591   0.11666
  23        2PY        -0.00002  -0.00028  -0.04771   0.06408  -0.07545
  24        2PZ        -0.00000   0.00000  -0.00127  -0.00240   0.00044
  25        3S          0.01426  -0.00235   0.36638   0.30118  -0.00015
  26        3PX        -0.00028   0.00071  -0.03521   0.05870   0.18323
  27        3PY        -0.00045   0.00123  -0.05998   0.10410  -0.11716
  28        3PZ        -0.00004  -0.00001  -0.00219  -0.00438   0.00068
  29        4S         -0.01290   0.00739   0.18866   0.23960  -0.00180
  30        4PX         0.00104  -0.00182  -0.00544   0.02551   0.10087
  31        4PY         0.00180  -0.00322  -0.00938   0.04428  -0.06385
  32        4PZ         0.00009  -0.00001  -0.00091  -0.00229   0.00036
  33 5   H  1S         -0.00005  -0.00005   0.04889   0.09245  -0.09043
  34        2S         -0.00000  -0.00031   0.05036   0.11115  -0.11460
  35        3S          0.00176   0.00030  -0.00128   0.01667  -0.03678
  36 6   H  1S         -0.00004  -0.00004   0.04791   0.09005   0.08453
  37        2S          0.00001  -0.00033   0.04973   0.10902   0.10776
  38        3S          0.00173   0.00027  -0.00127   0.01610   0.03505
                           6         7         8         9        10
                           O         O         O         V         V
     Eigenvalues --    -0.50996  -0.43559  -0.35730   0.08001   0.14067
   1 1   C  1S         -0.00463   0.00030  -0.00123   0.00334  -0.03164
   2        2S         -0.00707   0.00052  -0.00201   0.00554  -0.05070
   3        2PX         0.09231  -0.11121  -0.00431   0.00195  -0.02912
   4        2PY         0.16810   0.06593  -0.00708   0.00295  -0.06427
   5        2PZ         0.00632  -0.00011   0.17935  -0.18874  -0.00254
   6        3S          0.02516  -0.00136   0.00588  -0.01678   0.10947
   7        3PX         0.13383  -0.17722  -0.00610   0.00296  -0.03398
   8        3PY         0.24590   0.10540  -0.00998   0.00444  -0.08024
   9        3PZ         0.01001  -0.00012   0.28855  -0.27781  -0.00411
  10        4S         -0.04683  -0.00396   0.00833  -0.01830   1.17760
  11        4PX         0.06738  -0.11038  -0.00501   0.01622  -0.18305
  12        4PY         0.12534   0.06703  -0.00819   0.02566  -0.38641
  13        4PZ         0.00570  -0.00000   0.26680  -0.69550  -0.01549
  14 2   H  1S         -0.08057  -0.11563   0.00019   0.00522  -0.01569
  15        2S         -0.11098  -0.17865   0.00255   0.00814  -0.04678
  16        3S         -0.04155  -0.08281   0.00149   0.02121  -0.81810
  17 3   H  1S         -0.07755   0.11269   0.00011   0.00524  -0.01063
  18        2S         -0.10599   0.17331   0.00246   0.00842  -0.03411
  19        3S         -0.03923   0.08026   0.00144   0.02108  -0.73147
  20 4   C  1S         -0.00730  -0.00056  -0.00099  -0.00333  -0.03780
  21        2S         -0.01135  -0.00094  -0.00162  -0.00551  -0.06073
  22        2PX        -0.10007   0.12380   0.00397   0.00195   0.04373
  23        2PY        -0.16199  -0.07327   0.00754   0.00390   0.06206
  24        2PZ         0.00657   0.00037   0.17927   0.18941  -0.00420
  25        3S          0.03758   0.00274   0.00478   0.01649   0.13471
  26        3PX        -0.14807   0.19903   0.00552   0.00297   0.05402
  27        3PY        -0.23763  -0.11724   0.01058   0.00592   0.07305
  28        3PZ         0.01040   0.00057   0.28673   0.27741  -0.00636
  29        4S         -0.03714   0.00342   0.00832   0.01984   1.27716
  30        4PX        -0.07713   0.12829   0.00418   0.01547   0.27508
  31        4PY        -0.12203  -0.07410   0.00827   0.02932   0.41024
  32        4PZ         0.00600   0.00033   0.26669   0.69682  -0.02405
  33 5   H  1S         -0.07487  -0.12394   0.00030  -0.00500  -0.01370
  34        2S         -0.10288  -0.19424   0.00260  -0.00849  -0.03875
  35        3S         -0.03829  -0.09160   0.00147  -0.02288  -0.83106
  36 6   H  1S         -0.08161   0.12409   0.00020  -0.00500  -0.01860
  37        2S         -0.11268   0.19528   0.00245  -0.00834  -0.05121
  38        3S         -0.04223   0.09199   0.00139  -0.02294  -0.91909
                          11        12        13        14        15
                           V         V         V         V         V
     Eigenvalues --     0.16405   0.16979   0.24077   0.37656   0.39194
   1 1   C  1S          0.00079  -0.04624  -0.00007   0.01166   0.00222
   2        2S          0.00125  -0.07534  -0.00011   0.01662   0.00381
   3        2PX         0.09628  -0.02239   0.10089  -0.03654  -0.02557
   4        2PY        -0.05232  -0.03818  -0.05794  -0.06837   0.00553
   5        2PZ         0.00013  -0.00837   0.00012  -0.00587  -0.00027
   6        3S         -0.00240   0.16969   0.00021   0.02843  -0.00901
   7        3PX         0.13844  -0.01431   0.10737  -0.04971  -0.11339
   8        3PY        -0.07605  -0.02531  -0.06275  -0.09900   0.03310
   9        3PZ         0.00020  -0.01163   0.00004  -0.01164  -0.00019
  10        4S         -0.04865   1.47579  -0.00424  -2.87937  -0.32875
  11        4PX         0.57213  -0.13838   1.17280  -1.60403  -0.55769
  12        4PY        -0.30066  -0.21471  -0.66015  -2.81504   0.13413
  13        4PZ         0.00099  -0.05478   0.00210  -0.05328  -0.00334
  14 2   H  1S         -0.03035  -0.02462   0.01287  -0.05309   0.07735
  15        2S         -0.08185  -0.01526  -0.02127  -0.61138   0.80504
  16        3S         -1.01806  -1.01078  -1.56482  -0.35651  -0.34930
  17 3   H  1S          0.02903  -0.02477  -0.01542  -0.04382  -0.07460
  18        2S          0.08074  -0.02209   0.01521  -0.54074  -0.73097
  19        3S          1.07874  -1.05855   1.58552  -0.44258   0.23686
  20 4   C  1S          0.00248   0.04153   0.00003  -0.01990   0.00021
  21        2S          0.00398   0.06764   0.00002  -0.03242   0.00081
  22        2PX         0.10162  -0.02377  -0.09982  -0.04292  -0.03142
  23        2PY        -0.06416  -0.03508   0.05717  -0.07548   0.01375
  24        2PZ         0.00054   0.00795  -0.00012   0.00455   0.00063
  25        3S         -0.00833  -0.15113   0.00028   0.03759  -0.01217
  26        3PX         0.14690  -0.01968  -0.11310  -0.09308  -0.10353
  27        3PY        -0.09064  -0.02428   0.06365  -0.16758   0.06566
  28        3PZ         0.00077   0.01095  -0.00008   0.00605   0.00136
  29        4S         -0.10131  -1.29037  -0.00319   3.45602   0.21113
  30        4PX         0.53843  -0.11391  -1.11271  -1.29574  -0.60348
  31        4PY        -0.34765  -0.18159   0.65496  -2.27161  -0.04457
  32        4PZ         0.00327   0.05156  -0.00210   0.04673   0.00505
  33 5   H  1S          0.03246   0.02492   0.00632   0.01538  -0.07702
  34        2S          0.07120   0.02358  -0.03355   0.13857  -0.73046
  35        3S          1.11118   0.89437  -1.49442   0.46287   0.49150
  36 6   H  1S         -0.03133   0.02661  -0.00467   0.01033   0.08967
  37        2S         -0.07014   0.02175   0.03492   0.08711   0.92774
  38        3S         -0.97497   0.92491   1.48535   0.47617  -0.45921
                          16        17        18        19        20
                           V         V         V         V         V
     Eigenvalues --     0.39740   0.46277   0.48804   0.49347   0.59115
   1 1   C  1S         -0.01616   0.01417  -0.04612  -0.00008  -0.00066
   2        2S         -0.02887   0.03171  -0.07688   0.00022  -0.00118
   3        2PX         0.02013  -0.06120   0.01015   0.00156   0.00264
   4        2PY         0.04118  -0.10816   0.01273   0.00202   0.00382
   5        2PZ        -0.00024  -0.00086   0.00511  -0.15132  -0.19281
   6        3S          0.07524  -0.33885   0.08034  -0.01263  -0.00088
   7        3PX         0.08528  -0.23748  -0.03991   0.00142   0.00895
   8        3PY         0.18040  -0.41733  -0.07772  -0.00001   0.01285
   9        3PZ        -0.00597  -0.00615   0.02331  -0.62688  -0.68618
  10        4S          2.28671  -0.07568   3.20096   0.09498   0.08540
  11        4PX         0.00817   0.17251   0.81071   0.03085   0.02424
  12        4PY         0.13206   0.32134   1.38819   0.05606   0.04756
  13        4PZ        -0.00684   0.00288  -0.10449   0.68317   1.24229
  14 2   H  1S         -0.02444  -0.03295  -0.07767  -0.00273  -0.00203
  15        2S         -0.52477  -0.30753  -0.94625  -0.02530  -0.01412
  16        3S          0.22241   0.04033   0.63496   0.03320   0.02861
  17 3   H  1S         -0.04183  -0.03377  -0.07640  -0.00266  -0.00202
  18        2S         -0.69568  -0.31526  -0.91693  -0.02458  -0.01398
  19        3S          0.26458   0.03551   0.60747   0.03248   0.02799
  20 4   C  1S         -0.00404  -0.00468   0.05095   0.00341   0.00087
  21        2S         -0.01014  -0.00024   0.08885   0.00619   0.00162
  22        2PX         0.00287   0.05456   0.02904   0.00011   0.00235
  23        2PY         0.01117   0.09234   0.05152  -0.00029   0.00476
  24        2PZ        -0.00416  -0.00209   0.00530  -0.15291   0.19224
  25        3S          0.08408  -0.27770  -0.24312  -0.02483  -0.00318
  26        3PX        -0.05949   0.23490   0.06187   0.00055   0.00819
  27        3PY        -0.07555   0.40297   0.10617  -0.00124   0.01661
  28        3PZ        -0.01237  -0.00855   0.01865  -0.63175   0.68175
  29        4S         -0.44436   0.92142  -3.02855  -0.11653  -0.07559
  30        4PX         1.04500  -0.41260   0.63118   0.01585   0.02893
  31        4PY         1.95826  -0.70518   1.09605   0.02863   0.04441
  32        4PZ        -0.03503  -0.01968   0.04665   0.69630  -1.23762
  33 5   H  1S         -0.05548  -0.06499   0.06184   0.00246   0.00196
  34        2S         -0.90716  -0.65094   0.75864   0.03697   0.00820
  35        3S         -0.07204   0.30818  -0.56042  -0.00992  -0.02808
  36 6   H  1S         -0.03743  -0.06499   0.06131   0.00244   0.00194
  37        2S         -0.71028  -0.65346   0.75867   0.03649   0.00767
  38        3S         -0.14977   0.32776  -0.57118  -0.01079  -0.02832
                          21        22        23        24        25
                           V         V         V         V         V
     Eigenvalues --     0.66449   0.69002   0.77138   0.77663   0.83955
   1 1   C  1S          0.00096  -0.00099   0.05393   0.07166   0.00143
   2        2S          0.00201  -0.00210   0.11380   0.15278   0.00332
   3        2PX        -0.11645   0.20700  -0.02220   0.11604  -0.00702
   4        2PY         0.06742  -0.12507  -0.03792   0.18582   0.01748
   5        2PZ        -0.00019   0.00033   0.00104   0.00604   0.00020
   6        3S         -0.01651   0.02175  -0.77468  -1.32662  -0.03849
   7        3PX        -0.56286   0.73680  -0.16331   0.46013  -0.21129
   8        3PY         0.32163  -0.44537  -0.27819   0.72202   0.17672
   9        3PZ        -0.00102   0.00123   0.00381   0.02113   0.00044
  10        4S          0.02343  -0.05941   0.76405   2.46976   0.08410
  11        4PX         1.08610  -0.81170   0.16418  -0.82786   4.47540
  12        4PY        -0.61600   0.52584   0.14753  -0.97814  -2.50936
  13        4PZ         0.00167   0.00155   0.00956  -0.06888   0.00932
  14 2   H  1S          0.01837  -0.06102   0.01180   0.03175  -0.02501
  15        2S          0.06093  -0.65708   0.07281   0.10809  -1.53206
  16        3S         -0.96636   1.19154  -0.14208  -1.07389  -1.22744
  17 3   H  1S         -0.01737   0.05998   0.01212   0.03232   0.02990
  18        2S         -0.07495   0.68886   0.11651   0.04602   1.57973
  19        3S          0.96222  -1.12931  -0.11666  -1.27581   1.21127
  20 4   C  1S          0.00120  -0.00042   0.08484   0.02769   0.00067
  21        2S          0.00248  -0.00084   0.18052   0.05828   0.00123
  22        2PX        -0.16522  -0.17320  -0.09376   0.05406   0.01677
  23        2PY         0.09480   0.09527  -0.17044   0.10170   0.00189
  24        2PZ        -0.00027  -0.00033   0.00602  -0.00147  -0.00018
  25        3S         -0.01928   0.00076  -1.50453  -0.31667   0.00082
  26        3PX        -0.72401  -0.56784  -0.33727   0.28132   0.26930
  27        3PY         0.41902   0.30770  -0.62250   0.52986  -0.10062
  28        3PZ        -0.00129  -0.00103   0.02131  -0.00546  -0.00018
  29        4S          0.01558   0.01864   2.70606   0.01414  -0.09036
  30        4PX         1.27746   0.61493   0.46702  -0.18836  -4.17569
  31        4PY        -0.73440  -0.30457   0.99127  -0.72223   2.43422
  32        4PZ         0.00200  -0.00132  -0.06252   0.03318  -0.00876
  33 5   H  1S         -0.02975  -0.05323   0.03519   0.00148  -0.02330
  34        2S         -0.20288  -0.55743   0.05576   0.09344  -1.41827
  35        3S          1.16426   0.86185  -1.15310   0.34992  -1.09224
  36 6   H  1S          0.03072   0.05327   0.03474   0.00186   0.02180
  37        2S          0.19243   0.53144   0.06936   0.00226   1.39893
  38        3S         -1.17155  -0.89840  -1.05725   0.23490   1.11066
                          26        27        28        29        30
                           V         V         V         V         V
     Eigenvalues --     0.95382   2.23219   2.28929   2.33302   2.40525
   1 1   C  1S          0.09555  -0.01085  -0.01446  -0.00050  -0.00056
   2        2S          0.19856   0.00037  -0.01514  -0.00094  -0.00082
   3        2PX        -0.09202  -0.08474  -0.12885  -0.33350  -0.41629
   4        2PY        -0.15926  -0.16118  -0.23142   0.18723   0.23026
   5        2PZ         0.00018  -0.01735  -0.02197  -0.00053  -0.00132
   6        3S         -1.53639  -0.18278  -0.02805   0.00035  -0.00435
   7        3PX        -0.23770   0.08237   0.20392   0.39530   0.58058
   8        3PY        -0.40285   0.17282   0.37954  -0.22440  -0.32160
   9        3PZ        -0.00327   0.01739   0.02746   0.00045   0.00154
  10        4S          5.72190  -0.13748  -0.89878  -0.00425  -0.00046
  11        4PX         1.21941   0.05193  -0.17748   0.01481   0.96553
  12        4PY         1.98372   0.06847  -0.35850   0.00090  -0.51581
  13        4PZ        -0.02230   0.00485   0.01024   0.00036   0.00315
  14 2   H  1S          0.01529  -0.73217  -0.77444   0.68303   0.67455
  15        2S         -0.29715   1.04696   1.16262  -1.03667  -1.47917
  16        3S         -0.09520  -0.31244  -0.46758   0.45995   0.38995
  17 3   H  1S          0.01584  -0.71928  -0.76570  -0.68365  -0.69749
  18        2S         -0.25931   1.02828   1.15942   1.04059   1.52882
  19        3S         -0.06468  -0.28680  -0.43931  -0.45309  -0.37732
  20 4   C  1S         -0.09418  -0.00944   0.01189  -0.00046   0.00029
  21        2S         -0.19545   0.00180   0.01130  -0.00060   0.00064
  22        2PX        -0.09289   0.12812  -0.12829  -0.31721   0.40718
  23        2PY        -0.16062   0.22133  -0.21484   0.18439  -0.23926
  24        2PZ         0.00037  -0.01730   0.02196  -0.00075   0.00085
  25        3S          1.51115  -0.17314   0.02363  -0.00115  -0.00044
  26        3PX        -0.22885  -0.16405   0.22133   0.40207  -0.57151
  27        3PY        -0.40261  -0.27879   0.36254  -0.23097   0.33792
  28        3PZ         0.00428   0.01869  -0.02814   0.00083  -0.00114
  29        4S         -5.69589  -0.13581   0.87885  -0.01208  -0.01733
  30        4PX         1.09766  -0.01433  -0.21336  -0.08511  -0.83734
  31        4PY         2.00973  -0.03186  -0.32400   0.04533   0.50828
  32        4PZ         0.01563   0.00451  -0.00773   0.00002  -0.00272
  33 5   H  1S         -0.01833  -0.77028   0.70066  -0.72326   0.66311
  34        2S          0.28364   1.11344  -1.06784   1.06346  -1.42167
  35        3S          0.04771  -0.35094   0.41596  -0.52070   0.41504
  36 6   H  1S         -0.01813  -0.76558   0.71706   0.71287  -0.66300
  37        2S          0.31540   1.10428  -1.08182  -1.04564   1.41182
  38        3S          0.06967  -0.35211   0.44485   0.51959  -0.42673
                          31        32        33        34        35
                           V         V         V         V         V
     Eigenvalues --     2.67147   2.81678   2.87903   2.95087   3.14099
   1 1   C  1S          0.00064   0.00304  -0.01293   0.00003  -0.00933
   2        2S          0.00053   0.00893  -0.04399  -0.00025  -0.02871
   3        2PX         0.00746   0.08707  -0.45169  -0.73307   0.46442
   4        2PY         0.01022   0.15377  -0.82934   0.41931   0.79961
   5        2PZ        -0.92181  -0.92711  -0.17030  -0.00195   0.00972
   6        3S         -0.00230  -0.07457   0.39049   0.00474   0.24211
   7        3PX        -0.00598  -0.15229   0.81418   0.88541  -0.46059
   8        3PY        -0.00794  -0.26646   1.46032  -0.49121  -0.78618
   9        3PZ         0.93599   1.13295   0.21392   0.00262  -0.01263
  10        4S          0.01670   0.17122  -0.86789  -0.01128  -0.46795
  11        4PX        -0.00201   0.12268  -0.70511  -0.66273   0.24582
  12        4PY        -0.00308   0.21639  -1.26246   0.35332   0.41107
  13        4PZ        -0.33650  -0.61215  -0.13599  -0.00207   0.00821
  14 2   H  1S          0.01470  -0.02493   0.26717  -0.37819  -0.21849
  15        2S         -0.01691   0.01639  -0.22650   0.38365   0.16512
  16        3S         -0.00359   0.04996  -0.29825   0.27265   0.06582
  17 3   H  1S          0.01498  -0.02466   0.25966   0.37520  -0.22584
  18        2S         -0.01752   0.01486  -0.21232  -0.37663   0.17050
  19        3S         -0.00420   0.04978  -0.29741  -0.29005   0.08257
  20 4   C  1S          0.00061  -0.00304   0.01377   0.00048  -0.00719
  21        2S          0.00055  -0.00940   0.04787   0.00104  -0.02329
  22        2PX        -0.00792   0.08031  -0.42307  -0.80177  -0.48921
  23        2PY        -0.01626   0.14236  -0.73572   0.43802  -0.87926
  24        2PZ        -0.92753   0.92067   0.17234  -0.00036   0.01462
  25        3S         -0.00296   0.08066  -0.42953  -0.00709   0.20403
  26        3PX         0.00808  -0.14524   0.78446   0.94972   0.51351
  27        3PY         0.01634  -0.25581   1.36437  -0.51367   0.93453
  28        3PZ         0.94350  -1.12651  -0.21723   0.00044  -0.01821
  29        4S          0.01838  -0.17604   0.90665   0.02409  -0.39227
  30        4PX        -0.00041   0.12323  -0.71350  -0.69586  -0.30084
  31        4PY        -0.00211   0.21418  -1.23362   0.37608  -0.55952
  32        4PZ        -0.34043   0.60936   0.13892  -0.00042   0.01399
  33 5   H  1S          0.01446   0.03310  -0.29315   0.41507  -0.25966
  34        2S         -0.01775  -0.02662   0.26615  -0.43193   0.20527
  35        3S         -0.00159  -0.04570   0.27673  -0.23894   0.11817
  36 6   H  1S          0.01454   0.03286  -0.28904  -0.42898  -0.23978
  37        2S         -0.01825  -0.02733   0.26615   0.44476   0.18695
  38        3S         -0.00116  -0.04450   0.26746   0.23984   0.10375
                          36        37        38
                           V         V         V
     Eigenvalues --     3.31526  23.35085  23.70716
   1 1   C  1S         -0.00026  -1.41009  -1.45609
   2        2S         -0.00025   1.50372   1.57462
   3        2PX         0.78435  -0.00670   0.01203
   4        2PY        -0.43160  -0.01088   0.02103
   5        2PZ         0.00212  -0.00070  -0.00030
   6        3S         -0.00373  -0.29437  -0.40090
   7        3PX        -1.12414   0.02494  -0.05590
   8        3PY         0.61067   0.04117  -0.09706
   9        3PZ        -0.00322   0.00196   0.00089
  10        4S          0.01620   0.26903   0.77331
  11        4PX         1.96407  -0.02780   0.13489
  12        4PY        -1.05840  -0.04700   0.22912
  13        4PZ         0.00551  -0.00326  -0.00372
  14 2   H  1S          0.55424   0.01344   0.00733
  15        2S         -0.85737   0.00744  -0.01556
  16        3S         -0.45647  -0.08401  -0.04015
  17 3   H  1S         -0.56734   0.01547   0.00838
  18        2S          0.87638   0.00722  -0.01476
  19        3S          0.49040  -0.08683  -0.03926
  20 4   C  1S         -0.00007  -1.45126   1.41490
  21        2S         -0.00052   1.54784  -1.53030
  22        2PX        -0.71245   0.00568   0.01266
  23        2PY         0.41466   0.01025   0.02167
  24        2PZ        -0.00189  -0.00065   0.00016
  25        3S          0.00818  -0.30403   0.39055
  26        3PX         1.00950  -0.02133  -0.05693
  27        3PY        -0.59983  -0.03800  -0.09822
  28        3PZ         0.00282   0.00187  -0.00042
  29        4S         -0.04170   0.28360  -0.76158
  30        4PX        -1.76146   0.02174   0.13091
  31        4PY         1.06353   0.03949   0.23004
  32        4PZ        -0.00490  -0.00308   0.00274
  33 5   H  1S          0.48815   0.01228  -0.00386
  34        2S         -0.76072   0.00864   0.01264
  35        3S         -0.42402  -0.08272   0.03602
  36 6   H  1S         -0.48135   0.01086  -0.00303
  37        2S          0.75201   0.00941   0.01316
  38        3S          0.40629  -0.08059   0.03667
     Density Matrix:
                           1         2         3         4         5
   1 1   C  1S          0.65941
   2        2S          0.56155   0.49207
   3        2PX        -0.00051  -0.00069   0.08467
   4        2PY        -0.00133  -0.00185   0.00360   0.08787
   5        2PZ         0.00011   0.00017  -0.00012  -0.00033   0.06443
   6        3S         -0.08899  -0.15395   0.00262   0.00651  -0.00025
   7        3PX         0.00090   0.00138   0.13094   0.00119  -0.00007
   8        3PY         0.00121   0.00186   0.00125   0.13144  -0.00028
   9        3PZ         0.00022   0.00037  -0.00022  -0.00053   0.10366
  10        4S         -0.07930  -0.11416  -0.01513  -0.02706   0.00064
  11        4PX         0.00023   0.00154   0.07044  -0.00457  -0.00071
  12        4PY         0.00057   0.00291  -0.00473   0.06573  -0.00124
  13        4PZ        -0.00013  -0.00032  -0.00103  -0.00172   0.09579
  14 2   H  1S         -0.02053  -0.03270   0.03502  -0.06316  -0.00145
  15        2S         -0.02270  -0.03631   0.04964  -0.08777  -0.00104
  16        3S          0.00058  -0.00070   0.02109  -0.03304  -0.00001
  17 3   H  1S         -0.02113  -0.03361  -0.07308  -0.00251  -0.00170
  18        2S         -0.02310  -0.03688  -0.10062  -0.00233  -0.00134
  19        3S          0.00063  -0.00063  -0.03841   0.00138  -0.00011
  20 4   C  1S          0.00611   0.00985  -0.01081  -0.01883  -0.00051
  21        2S          0.00982   0.01535  -0.01729  -0.03013  -0.00083
  22        2PX         0.01047   0.01675  -0.01235  -0.03233   0.00051
  23        2PY         0.01814   0.02901  -0.03218  -0.04972   0.00108
  24        2PZ        -0.00059  -0.00097  -0.00054  -0.00076   0.06438
  25        3S         -0.02649  -0.04021   0.04845   0.08461   0.00251
  26        3PX         0.01615   0.02505  -0.01810  -0.04599   0.00064
  27        3PY         0.02796   0.04336  -0.04554  -0.07109   0.00143
  28        3PZ        -0.00101  -0.00163  -0.00094  -0.00134   0.10296
  29        4S          0.00541   0.00405   0.02003   0.03558   0.00311
  30        4PX         0.00314   0.00646  -0.01312  -0.02095   0.00073
  31        4PY         0.00525   0.01093  -0.02093  -0.03701   0.00164
  32        4PZ        -0.00086  -0.00139  -0.00139  -0.00214   0.09573
  33 5   H  1S          0.00420   0.00690  -0.00172  -0.01235  -0.00059
  34        2S          0.00636   0.01057   0.00352  -0.02510  -0.00003
  35        3S          0.00330   0.00483   0.00429  -0.01769   0.00012
  36 6   H  1S          0.00415   0.00683  -0.00978  -0.00757  -0.00061
  37        2S          0.00634   0.01057  -0.02337  -0.00947  -0.00010
  38        3S          0.00328   0.00484  -0.01736  -0.00525   0.00006
                           6         7         8         9        10
   6        3S          0.45281
   7        3PX        -0.00190   0.20279
   8        3PY        -0.00154  -0.00447   0.19711
   9        3PZ        -0.00073  -0.00015  -0.00044   0.16677
  10        4S          0.27284  -0.02563  -0.04680   0.00082   0.18108
  11        4PX        -0.00672   0.10943  -0.01019  -0.00117  -0.01466
  12        4PY        -0.01203  -0.01050   0.09901  -0.00199  -0.02798
  13        4PZ         0.00142  -0.00138  -0.00226   0.15411   0.00254
  14 2   H  1S          0.08736   0.05635  -0.09862  -0.00241   0.06871
  15        2S          0.09719   0.08021  -0.13656  -0.00177   0.08054
  16        3S          0.00607   0.03439  -0.05079  -0.00002   0.01094
  17 3   H  1S          0.08988  -0.11429  -0.00240  -0.00278   0.06897
  18        2S          0.09875  -0.15721  -0.00094  -0.00220   0.07926
  19        3S          0.00601  -0.05978   0.00390  -0.00017   0.00977
  20 4   C  1S         -0.02668  -0.01685  -0.02935  -0.00087   0.00529
  21        2S         -0.04038  -0.02615  -0.04561  -0.00141   0.00403
  22        2PX        -0.04691  -0.01759  -0.04595   0.00089  -0.01846
  23        2PY        -0.08113  -0.04566  -0.07084   0.00185  -0.03150
  24        2PZ         0.00288  -0.00075  -0.00101   0.10358   0.00297
  25        3S          0.10300   0.07089   0.12405   0.00420   0.00085
  26        3PX        -0.06787  -0.02592  -0.06518   0.00113  -0.02756
  27        3PY        -0.11729  -0.06441  -0.10124   0.00247  -0.04693
  28        3PZ         0.00478  -0.00131  -0.00179   0.16565   0.00494
  29        4S          0.00150   0.03023   0.05393   0.00517  -0.03289
  30        4PX        -0.02280  -0.01963  -0.02950   0.00123  -0.00720
  31        4PY        -0.03885  -0.02944  -0.05342   0.00271  -0.01145
  32        4PZ         0.00408  -0.00195  -0.00296   0.15401   0.00457
  33 5   H  1S         -0.02049  -0.00071  -0.01773  -0.00086  -0.01520
  34        2S         -0.03150   0.00858  -0.03689   0.00005  -0.01990
  35        3S         -0.01238   0.00818  -0.02656   0.00021  -0.00373
  36 6   H  1S         -0.02033  -0.01482  -0.00929  -0.00089  -0.01566
  37        2S         -0.03163  -0.03587  -0.01086  -0.00004  -0.02114
  38        3S         -0.01253  -0.02683  -0.00631   0.00013  -0.00449
                          11        12        13        14        15
  11        4PX         0.06011
  12        4PY        -0.00919   0.05135
  13        4PZ        -0.00173  -0.00281   0.14244
  14 2   H  1S          0.03371  -0.05432  -0.00124   0.08146
  15        2S          0.04875  -0.07515  -0.00039   0.10968   0.14982
  16        3S          0.02132  -0.02788   0.00028   0.03690   0.05269
  17 3   H  1S         -0.06320   0.00157  -0.00141  -0.01304  -0.02488
  18        2S         -0.08736   0.00433  -0.00058  -0.02482  -0.04341
  19        3S         -0.03354   0.00467   0.00022  -0.01827  -0.02775
  20 4   C  1S         -0.00306  -0.00564  -0.00077   0.00424   0.00668
  21        2S         -0.00638  -0.01158  -0.00124   0.00701   0.01116
  22        2PX        -0.01309  -0.02003   0.00127   0.00190  -0.00259
  23        2PY        -0.02002  -0.03698   0.00250   0.01139   0.02404
  24        2PZ        -0.00102  -0.00151   0.09573  -0.00070  -0.00019
  25        3S          0.02275   0.04091   0.00362  -0.02110  -0.03362
  26        3PX        -0.02014  -0.02822   0.00171   0.00100  -0.00726
  27        3PY        -0.02809  -0.05377   0.00343   0.01693   0.03603
  28        3PZ        -0.00168  -0.00250   0.15310  -0.00102  -0.00019
  29        4S          0.00728   0.01415   0.00473  -0.01746  -0.02378
  30        4PX        -0.01484  -0.01226   0.00154  -0.00182  -0.00871
  31        4PY        -0.01244  -0.02946   0.00320   0.01504   0.02678
  32        4PZ        -0.00198  -0.00307   0.14237  -0.00056   0.00039
  33 5   H  1S          0.00192  -0.01606  -0.00043   0.01123   0.02332
  34        2S          0.00914  -0.02806   0.00054   0.02395   0.04465
  35        3S          0.00758  -0.01612   0.00040   0.01681   0.02810
  36 6   H  1S         -0.01447  -0.00569  -0.00046  -0.00918  -0.01835
  37        2S         -0.02822  -0.00515   0.00049  -0.01907  -0.03472
  38        3S         -0.01734  -0.00116   0.00036  -0.01032  -0.01801
                          16        17        18        19        20
  16        3S          0.02117
  17 3   H  1S         -0.01840   0.08285
  18        2S         -0.02779   0.10992   0.14802
  19        3S         -0.01311   0.03615   0.05101   0.02023
  20 4   C  1S          0.00366   0.00431   0.00664   0.00363   0.65947
  21        2S          0.00541   0.00711   0.01105   0.00531   0.56153
  22        2PX        -0.00343   0.00903   0.02218   0.01660   0.00125
  23        2PY         0.01748   0.00756   0.00970   0.00552   0.00190
  24        2PZ         0.00004  -0.00068  -0.00011   0.00011   0.00010
  25        3S         -0.01405  -0.02127  -0.03307  -0.01360  -0.08917
  26        3PX        -0.00700   0.01434   0.03496   0.02600  -0.00043
  27        3PY         0.02637   0.00947   0.01145   0.00673  -0.00100
  28        3PZ         0.00009  -0.00099  -0.00005   0.00019   0.00022
  29        4S         -0.00560  -0.01702  -0.02245  -0.00486  -0.08039
  30        4PX        -0.00715   0.01421   0.02784   0.01715  -0.00022
  31        4PY         0.01575   0.00653   0.00642   0.00177  -0.00022
  32        4PZ         0.00035  -0.00055   0.00046   0.00040  -0.00005
  33 5   H  1S          0.01617  -0.00900  -0.01804  -0.00944  -0.02000
  34        2S          0.02754  -0.01868  -0.03399  -0.01706  -0.02226
  35        3S          0.01477  -0.01014  -0.01766  -0.00907   0.00053
  36 6   H  1S         -0.00963   0.01124   0.02329   0.01592  -0.01966
  37        2S         -0.01747   0.02387   0.04442   0.02716  -0.02214
  38        3S         -0.00928   0.01674   0.02785   0.01454   0.00042
                          21        22        23        24        25
  21        2S          0.49199
  22        2PX         0.00180   0.08209
  23        2PY         0.00271   0.00401   0.08748
  24        2PZ         0.00014   0.00021   0.00027   0.06438
  25        3S         -0.15408  -0.00578  -0.00884  -0.00017   0.45319
  26        3PX        -0.00066   0.12790   0.00212   0.00015  -0.00050
  27        3PY        -0.00151   0.00212   0.13107   0.00013   0.00037
  28        3PZ         0.00036   0.00031   0.00041   0.10297  -0.00072
  29        4S         -0.11619   0.01454   0.02463   0.00087   0.27947
  30        4PX        -0.00151   0.07291  -0.00518   0.00056   0.00633
  31        4PY        -0.00235  -0.00505   0.06673   0.00106   0.01038
  32        4PZ        -0.00017   0.00097   0.00177   0.09571   0.00096
  33 5   H  1S         -0.03187  -0.03291   0.06325  -0.00162   0.08524
  34        2S         -0.03557  -0.04907   0.08857  -0.00133   0.09512
  35        3S         -0.00070  -0.02232   0.03366  -0.00015   0.00580
  36 6   H  1S         -0.03136   0.07056   0.00247  -0.00139   0.08388
  37        2S         -0.03541   0.10110   0.00089  -0.00101   0.09471
  38        3S         -0.00085   0.04065  -0.00288  -0.00003   0.00615
                          26        27        28        29        30
  26        3PX         0.19966
  27        3PY        -0.00267   0.19697
  28        3PZ         0.00020   0.00018   0.16469
  29        4S          0.02665   0.04473   0.00108   0.18937
  30        4PX         0.11429  -0.01102   0.00088   0.01643   0.06657
  31        4PY        -0.01081   0.10084   0.00169   0.02651  -0.01062
  32        4PZ         0.00123   0.00226   0.15309   0.00255   0.00135
  33 5   H  1S         -0.05289   0.09922  -0.00267   0.06780  -0.03431
  34        2S         -0.07932   0.13845  -0.00222   0.07903  -0.05194
  35        3S         -0.03654   0.05195  -0.00025   0.00984  -0.02414
  36 6   H  1S          0.11174   0.00289  -0.00232   0.06784   0.06556
  37        2S          0.15992  -0.00070  -0.00174   0.08036   0.09427
  38        3S          0.06396  -0.00618  -0.00007   0.01086   0.03804
                          31        32        33        34        35
  31        4PY         0.05318
  32        4PZ         0.00267   0.14233
  33 5   H  1S          0.05547  -0.00139   0.08017
  34        2S          0.07747  -0.00066   0.10976   0.15269
  35        3S          0.02915   0.00017   0.03805   0.05548   0.02299
  36 6   H  1S         -0.00219  -0.00123  -0.01249  -0.02594  -0.01982
  37        2S         -0.00644  -0.00043  -0.02600  -0.04812  -0.03156
  38        3S         -0.00633   0.00025  -0.01997  -0.03162  -0.01565
                          36        37        38
  36 6   H  1S          0.07922
  37        2S          0.10948   0.15362
  38        3S          0.03843   0.05639   0.02348
    Full Mulliken population analysis:
                           1         2         3         4         5
   1 1   C  1S          0.65941
   2        2S          0.49329   0.49207
   3        2PX         0.00000   0.00000   0.08467
   4        2PY         0.00000   0.00000   0.00000   0.08787
   5        2PZ         0.00000   0.00000   0.00000   0.00000   0.06443
   6        3S         -0.02929  -0.06447   0.00000   0.00000   0.00000
   7        3PX         0.00000   0.00000   0.08238   0.00000   0.00000
   8        3PY         0.00000   0.00000   0.00000   0.08269   0.00000
   9        3PZ         0.00000   0.00000   0.00000   0.00000   0.06521
  10        4S         -0.01219  -0.02136   0.00000   0.00000   0.00000
  11        4PX         0.00000   0.00000   0.01551   0.00000   0.00000
  12        4PY         0.00000   0.00000   0.00000   0.01448   0.00000
  13        4PZ         0.00000   0.00000   0.00000   0.00000   0.02110
  14 2   H  1S         -0.00023  -0.00033   0.00182   0.00567   0.00001
  15        2S         -0.00166  -0.00318   0.00433   0.01324   0.00001
  16        3S          0.00005  -0.00007   0.00070   0.00191   0.00000
  17 3   H  1S         -0.00026  -0.00038   0.00804   0.00001   0.00001
  18        2S         -0.00174  -0.00334   0.01782   0.00001   0.00001
  19        3S          0.00005  -0.00006   0.00255  -0.00000   0.00000
  20 4   C  1S          0.00000   0.00000  -0.00002  -0.00006   0.00000
  21        2S          0.00000  -0.00000  -0.00002  -0.00006   0.00000
  22        2PX        -0.00002  -0.00002   0.00011   0.00087   0.00000
  23        2PY        -0.00006  -0.00005   0.00086   0.00199   0.00000
  24        2PZ        -0.00000  -0.00000  -0.00000  -0.00000   0.00042
  25        3S         -0.00060  -0.00101   0.00254   0.00769  -0.00000
  26        3PX        -0.00055  -0.00101   0.00019   0.00558   0.00000
  27        3PY        -0.00165  -0.00303   0.00553   0.01070   0.00000
  28        3PZ        -0.00000  -0.00000  -0.00000  -0.00000   0.00615
  29        4S          0.00034   0.00031   0.00091   0.00280  -0.00000
  30        4PX        -0.00018  -0.00046  -0.00071   0.00145   0.00000
  31        4PY        -0.00053  -0.00135   0.00145   0.00095   0.00000
  32        4PZ        -0.00000  -0.00000  -0.00000  -0.00000   0.00903
  33 5   H  1S          0.00000   0.00000  -0.00000  -0.00000   0.00000
  34        2S          0.00001   0.00002   0.00000  -0.00031   0.00000
  35        3S          0.00008   0.00013   0.00001  -0.00071  -0.00000
  36 6   H  1S          0.00000   0.00000  -0.00000  -0.00000   0.00000
  37        2S          0.00001   0.00002  -0.00024  -0.00007   0.00000
  38        3S          0.00008   0.00013  -0.00057  -0.00012  -0.00000
                           6         7         8         9        10
   6        3S          0.45281
   7        3PX         0.00000   0.20279
   8        3PY         0.00000   0.00000   0.19711
   9        3PZ         0.00000   0.00000   0.00000   0.16677
  10        4S          0.21137   0.00000   0.00000   0.00000   0.18108
  11        4PX         0.00000   0.07151   0.00000   0.00000   0.00000
  12        4PY         0.00000   0.00000   0.06470   0.00000   0.00000
  13        4PZ         0.00000   0.00000   0.00000   0.10070   0.00000
  14 2   H  1S          0.01609   0.01076   0.03257   0.00003   0.01819
  15        2S          0.04096   0.01961   0.05775   0.00003   0.04646
  16        3S          0.00280   0.00400   0.01023   0.00000   0.00826
  17 3   H  1S          0.01718   0.04469   0.00002   0.00004   0.01852
  18        2S          0.04250   0.07740   0.00001   0.00004   0.04622
  19        3S          0.00279   0.01385  -0.00002   0.00000   0.00743
  20 4   C  1S         -0.00060  -0.00057  -0.00173   0.00000   0.00034
  21        2S         -0.00102  -0.00105  -0.00318   0.00000   0.00031
  22        2PX         0.00246   0.00018   0.00558   0.00000   0.00084
  23        2PY         0.00737   0.00554   0.01066   0.00000   0.00248
  24        2PZ         0.00000  -0.00000  -0.00000   0.00619   0.00000
  25        3S          0.02206   0.01333   0.04039  -0.00000   0.00032
  26        3PX         0.01276  -0.00127   0.01863   0.00000   0.00425
  27        3PY         0.03819   0.01841   0.02843   0.00000   0.01254
  28        3PZ         0.00000  -0.00000  -0.00000   0.03548   0.00000
  29        4S          0.00057   0.00466   0.01441  -0.00000  -0.02068
  30        4PX         0.00641  -0.00404   0.00584   0.00000   0.00218
  31        4PY         0.01891   0.00582   0.00119   0.00000   0.00600
  32        4PZ         0.00000  -0.00000  -0.00000   0.04932   0.00000
  33 5   H  1S         -0.00005  -0.00000  -0.00019   0.00000  -0.00081
  34        2S         -0.00121   0.00006  -0.00322  -0.00000  -0.00332
  35        3S         -0.00201   0.00010  -0.00427  -0.00000  -0.00134
  36 6   H  1S         -0.00005  -0.00013  -0.00005   0.00000  -0.00083
  37        2S         -0.00120  -0.00256  -0.00053   0.00000  -0.00351
  38        3S         -0.00202  -0.00356  -0.00057  -0.00000  -0.00161
                          11        12        13        14        15
  11        4PX         0.06011
  12        4PY         0.00000   0.05135
  13        4PZ         0.00000   0.00000   0.14244
  14 2   H  1S          0.00631   0.01760   0.00002   0.08146
  15        2S          0.01537   0.04097   0.00001   0.07748   0.14982
  16        3S          0.00526   0.01191  -0.00000   0.01379   0.04157
  17 3   H  1S          0.02367  -0.00001   0.00002  -0.00001  -0.00069
  18        2S          0.05490  -0.00005   0.00001  -0.00069  -0.00562
  19        3S          0.01644  -0.00004  -0.00000  -0.00208  -0.00821
  20 4   C  1S         -0.00018  -0.00057   0.00000   0.00000   0.00002
  21        2S         -0.00045  -0.00143   0.00000   0.00000   0.00003
  22        2PX        -0.00071   0.00139   0.00000  -0.00000   0.00000
  23        2PY         0.00139   0.00095   0.00000  -0.00000  -0.00036
  24        2PZ        -0.00000  -0.00000   0.00903   0.00000   0.00000
  25        3S          0.00640   0.01992  -0.00000  -0.00007  -0.00148
  26        3PX        -0.00415   0.00558   0.00000  -0.00000   0.00004
  27        3PY         0.00556   0.00120   0.00000  -0.00022  -0.00354
  28        3PZ        -0.00000  -0.00000   0.04903   0.00000   0.00000
  29        4S          0.00220   0.00742  -0.00000  -0.00102  -0.00427
  30        4PX        -0.00716   0.00310   0.00000   0.00002   0.00019
  31        4PY         0.00314  -0.00563   0.00000  -0.00239  -0.01010
  32        4PZ        -0.00000  -0.00000   0.08951   0.00000  -0.00000
  33 5   H  1S          0.00002  -0.00237   0.00000   0.00000   0.00000
  34        2S          0.00026  -0.01004  -0.00000   0.00000   0.00015
  35        3S          0.00028  -0.00743  -0.00000   0.00023   0.00147
  36 6   H  1S         -0.00176  -0.00047   0.00000  -0.00000  -0.00004
  37        2S         -0.00833  -0.00103  -0.00000  -0.00004  -0.00093
  38        3S         -0.00662  -0.00030  -0.00000  -0.00047  -0.00251
                          16        17        18        19        20
  16        3S          0.02117
  17 3   H  1S         -0.00209   0.08285
  18        2S         -0.00822   0.07764   0.14802
  19        3S         -0.00688   0.01351   0.04024   0.02023
  20 4   C  1S          0.00009   0.00000   0.00002   0.00009   0.65947
  21        2S          0.00016   0.00000   0.00003   0.00016   0.49328
  22        2PX         0.00001  -0.00000  -0.00027  -0.00058   0.00000
  23        2PY        -0.00073  -0.00000  -0.00008  -0.00013   0.00000
  24        2PZ        -0.00000   0.00000   0.00000  -0.00000   0.00000
  25        3S         -0.00242  -0.00007  -0.00146  -0.00235  -0.02935
  26        3PX         0.00007  -0.00016  -0.00285  -0.00361   0.00000
  27        3PY        -0.00441  -0.00007  -0.00063  -0.00063   0.00000
  28        3PZ        -0.00000   0.00000   0.00000  -0.00000   0.00000
  29        4S         -0.00210  -0.00100  -0.00403  -0.00182  -0.01236
  30        4PX         0.00019  -0.00187  -0.00872  -0.00672   0.00000
  31        4PY        -0.00743  -0.00058  -0.00135  -0.00047   0.00000
  32        4PZ        -0.00000   0.00000  -0.00000  -0.00000   0.00000
  33 5   H  1S          0.00022  -0.00000  -0.00004  -0.00042  -0.00021
  34        2S          0.00144  -0.00004  -0.00088  -0.00234  -0.00157
  35        3S          0.00248  -0.00045  -0.00242  -0.00287   0.00004
  36 6   H  1S         -0.00044   0.00000   0.00000   0.00022  -0.00019
  37        2S         -0.00244   0.00000   0.00015   0.00141  -0.00153
  38        3S         -0.00297   0.00023   0.00145   0.00243   0.00003
                          21        22        23        24        25
  21        2S          0.49199
  22        2PX         0.00000   0.08209
  23        2PY         0.00000   0.00000   0.08748
  24        2PZ         0.00000   0.00000   0.00000   0.06438
  25        3S         -0.06453   0.00000   0.00000   0.00000   0.45319
  26        3PX         0.00000   0.08047   0.00000   0.00000   0.00000
  27        3PY         0.00000   0.00000   0.08246   0.00000   0.00000
  28        3PZ         0.00000   0.00000   0.00000   0.06478   0.00000
  29        4S         -0.02175   0.00000   0.00000   0.00000   0.21651
  30        4PX         0.00000   0.01606   0.00000   0.00000   0.00000
  31        4PY         0.00000   0.00000   0.01469   0.00000   0.00000
  32        4PZ         0.00000   0.00000   0.00000   0.02108   0.00000
  33 5   H  1S         -0.00029   0.00143   0.00549   0.00001   0.01507
  34        2S         -0.00300   0.00376   0.01355   0.00001   0.03920
  35        3S         -0.00007   0.00067   0.00201   0.00000   0.00265
  36 6   H  1S         -0.00027   0.00655   0.00001   0.00000   0.01443
  37        2S         -0.00292   0.01707   0.00001   0.00001   0.03843
  38        3S         -0.00008   0.00272  -0.00001   0.00000   0.00279
                          26        27        28        29        30
  26        3PX         0.19966
  27        3PY         0.00000   0.19697
  28        3PZ         0.00000   0.00000   0.16469
  29        4S          0.00000   0.00000   0.00000   0.18937
  30        4PX         0.07469   0.00000   0.00000   0.00000   0.06657
  31        4PY         0.00000   0.06590   0.00000   0.00000   0.00000
  32        4PZ         0.00000   0.00000   0.10004   0.00000   0.00000
  33 5   H  1S          0.00880   0.03293   0.00004   0.01768   0.00574
  34        2S          0.01720   0.05990   0.00004   0.04506   0.01468
  35        3S          0.00382   0.01084   0.00000   0.00738   0.00537
  36 6   H  1S          0.04066   0.00005   0.00003   0.01751   0.02442
  37        2S          0.07679  -0.00002   0.00003   0.04545   0.05944
  38        3S          0.01494  -0.00007   0.00000   0.00810   0.01894
                          31        32        33        34        35
  31        4PY         0.05318
  32        4PZ         0.00000   0.14233
  33 5   H  1S          0.01852   0.00002   0.08017
  34        2S          0.04369   0.00002   0.07753   0.15269
  35        3S          0.01294  -0.00000   0.01422   0.04377   0.02299
  36 6   H  1S         -0.00004   0.00002  -0.00001  -0.00074  -0.00228
  37        2S         -0.00021   0.00001  -0.00074  -0.00634  -0.00942
  38        3S         -0.00016  -0.00000  -0.00229  -0.00944  -0.00826
                          36        37        38
  36 6   H  1S          0.07922
  37        2S          0.07733   0.15362
  38        3S          0.01436   0.04449   0.02348
     Gross orbital populations:
                           1
   1 1   C  1S          1.10434
   2        2S          0.88586
   3        2PX         0.22788
   4        2PY         0.23657
   5        2PZ         0.16637
   6        3S          0.79332
   7        3PX         0.56191
   8        3PY         0.55645
   9        3PZ         0.42382
  10        4S          0.50113
  11        4PX         0.25898
  12        4PY         0.21116
  13        4PZ         0.41185
  14 2   H  1S          0.27448
  15        2S          0.46691
  16        3S          0.08608
  17 3   H  1S          0.27875
  18        2S          0.46407
  19        3S          0.08217
  20 4   C  1S          1.10442
  21        2S          0.88584
  22        2PX         0.22065
  23        2PY         0.23553
  24        2PZ         0.16591
  25        3S          0.79156
  26        3PX         0.55052
  27        3PY         0.55533
  28        3PZ         0.42031
  29        4S          0.51164
  30        4PX         0.27541
  31        4PY         0.21617
  32        4PZ         0.41135
  33 5   H  1S          0.27048
  34        2S          0.47058
  35        3S          0.08995
  36 6   H  1S          0.26752
  37        2S          0.47221
  38        3S          0.09252
          Condensed to atoms (all electrons):
               1          2          3          4          5          6
     1  C    5.034127   0.387438   0.388329   0.601942  -0.036302  -0.035889
     2  H    0.387438   0.518120  -0.034485  -0.039754   0.005992  -0.009845
     3  H    0.388329  -0.034485   0.513883  -0.039165  -0.009459   0.005896
     4  C    0.601942  -0.039754  -0.039165   5.055268   0.383400   0.382941
     5  H   -0.036302   0.005992  -0.009459   0.383400   0.526883  -0.039517
     6  H   -0.035889  -0.009845   0.005896   0.382941  -0.039517   0.528671
 Mulliken charges:
               1
     1  C   -0.339646
     2  H    0.172533
     3  H    0.175000
     4  C   -0.344632
     5  H    0.169002
     6  H    0.167743
 Sum of Mulliken charges =   0.00000
 Mulliken charges with hydrogens summed into heavy atoms:
               1
     1  C    0.007888
     4  C   -0.007888
 Electronic spatial extent (au):  <R**2>=             83.7668
 Charge=              0.0000 electrons
 Dipole moment (field-independent basis, Debye):
    X=             -0.0052    Y=              0.0069    Z=             -0.1309  Tot=              0.1312
 Quadrupole moment (field-independent basis, Debye-Ang):
   XX=            -12.2131   YY=            -12.2207   ZZ=            -15.6701
   XY=              0.0208   XZ=              0.0026   YZ=             -0.0041
 Traceless Quadrupole moment (field-independent basis, Debye-Ang):
   XX=              1.1549   YY=              1.1472   ZZ=             -2.3021
   XY=              0.0208   XZ=              0.0026   YZ=             -0.0041
 Octapole moment (field-independent basis, Debye-Ang**2):
  XXX=             -0.3178  YYY=             -0.0697  ZZZ=             -0.0554  XYY=              0.0802
  XXY=             -0.0791  XXZ=             -0.1695  XZZ=             -0.1085  YZZ=             -0.0975
  YYZ=             -0.2259  XYZ=             -0.0485
 Hexadecapole moment (field-independent basis, Debye-Ang**3):
 XXXX=            -34.3404 YYYY=            -55.2401 ZZZZ=            -17.8143 XXXY=             -7.2204
 XXXZ=              0.0173 YYYX=            -10.7008 YYYZ=              0.0202 ZZZX=              0.0197
 ZZZY=              0.0459 XXYY=            -16.2193 XXZZ=             -9.9384 YYZZ=            -13.6561
 XXYZ=              0.0126 YYXZ=              0.0022 ZZXY=             -3.2017
 N-N= 3.306129526699D+01 E-N=-2.478281143502D+02  KE= 7.814618618561D+01
 Orbital energies and kinetic energies (alpha):
                                 1                 2
   1         O               -10.291684         15.979459
   2         O               -10.287270         15.978976
   3         O                -0.864087          1.541377
   4         O                -0.671536          1.269619
   5         O                -0.558719          0.941585
   6         O                -0.509960          1.282025
   7         O                -0.435585          1.040450
   8         O                -0.357300          1.039601
   9         V                 0.080008          1.181770
  10         V                 0.140675          0.591507
  11         V                 0.164051          0.598577
  12         V                 0.169790          0.680267
  13         V                 0.240773          0.584708
  14         V                 0.376555          0.858004
  15         V                 0.391943          0.929783
  16         V                 0.397395          0.773886
  17         V                 0.462772          1.196037
  18         V                 0.488043          1.419091
  19         V                 0.493471          1.300726
  20         V                 0.591153          1.654335
  21         V                 0.664488          1.574079
  22         V                 0.690024          2.141547
  23         V                 0.771378          2.434150
  24         V                 0.776632          2.300232
  25         V                 0.839547          1.084047
  26         V                 0.953821          3.434728
  27         V                 2.232192          3.922042
  28         V                 2.289289          4.032081
  29         V                 2.333016          4.299565
  30         V                 2.405254          4.513009
  31         V                 2.671468          6.301357
  32         V                 2.816784          6.302972
  33         V                 2.879032          6.137623
  34         V                 2.950866          6.227415
  35         V                 3.140989          6.822160
  36         V                 3.315257          6.401669
  37         V                23.350854         60.073627
  38         V                23.707159         60.205068
 Total kinetic energy from orbitals= 7.814618618561D+01
 Calling FoFJK, ICntrl=      2127 FMM=F ISym2X=0 I1Cent= 0 IOpClX= 0 NMat=1 NMatS=1 NMatT=0.
 -------------------------------------------------------------------
 Center     Atomic                   Forces (Hartrees/Bohr)
 Number     Number              X              Y              Z
 -------------------------------------------------------------------
      1        6           0.013178340    0.005242955   -0.005258814
      2        1          -0.007675505    0.005534957    0.002677927
      3        1          -0.000068558   -0.002843070    0.002404847
      4        6           0.012171759    0.012810593   -0.005919077
      5        1           0.004462891   -0.016423553    0.002991919
      6        1          -0.022068926   -0.004321881    0.003103199
 -------------------------------------------------------------------
 Cartesian Forces:  Max     0.022068926 RMS     0.009130688

 GradGradGradGradGradGradGradGradGradGradGradGradGradGradGradGradGradGrad
 Berny optimization.
 Search for a local minimum.
 Step number   1 out of a maximum of    2
 All quantities printed in internal units (Hartrees-Bohrs-Radians)
 Second derivative matrix not updated -- first step.
 The second derivative matrix:
                          X1        Y1        Z1        X2        Y2
           X1           0.76400
           Y1           0.10314   0.86453
           Z1           0.00824   0.01190   0.17393
           X2          -0.16348   0.09612   0.00275   0.14126
           Y2           0.10263  -0.28522  -0.00986  -0.11549   0.27411
           Z2           0.00438  -0.01241  -0.05552  -0.00394   0.01023
           X3          -0.35660  -0.00464  -0.01123  -0.00070  -0.00039
           Y3          -0.01113  -0.11072  -0.00272   0.03261   0.01877
           Z3          -0.01429  -0.00263  -0.05756   0.00199   0.00073
           X4          -0.26868  -0.18032  -0.00108   0.02295   0.01324
           Y4          -0.18045  -0.47678  -0.00168  -0.01325  -0.00765
           Z4           0.00166   0.00310  -0.09475  -0.00080  -0.00109
           X5           0.02339  -0.01350   0.00083  -0.00001   0.00001
           Y5           0.01169  -0.00675   0.00114   0.00001  -0.00000
           Z5          -0.00072   0.00044   0.01751   0.00034  -0.00018
           X6           0.00137  -0.00079   0.00050  -0.00001   0.00001
           Y6          -0.02588   0.01495   0.00121   0.00001  -0.00000
           Z6           0.00073  -0.00040   0.01639  -0.00033   0.00018
                          Z2        X3        Y3        Z3        X4
           Z2           0.02907
           X3          -0.00044   0.35678
           Y3           0.00216   0.00533   0.07647
           Z3           0.01058   0.01227   0.00190   0.03033
           X4           0.00067   0.00054  -0.02683  -0.00066   0.70366
           Y4          -0.00036  -0.00031   0.01549   0.00041   0.12243
           Z4           0.01575  -0.00061  -0.00134   0.01678  -0.00629
           X5          -0.00035  -0.00001   0.00001   0.00035  -0.14485
           Y5           0.00021   0.00001  -0.00001  -0.00022   0.09023
           Z5           0.00931   0.00036  -0.00022  -0.00954  -0.00411
           X6          -0.00032  -0.00001   0.00001   0.00033  -0.31362
           Y6           0.00017   0.00001  -0.00000  -0.00018  -0.01876
           Z6          -0.00919  -0.00036   0.00022   0.00941   0.01148
                          Y4        Z4        X5        Y5        Z5
           Y4           0.85514
           Z4          -0.01292   0.17490
           X5           0.08251  -0.00273   0.12322
           Y5          -0.28337   0.00980  -0.10109   0.27413
           Z5           0.01213  -0.05705   0.00370  -0.01045   0.02969
           X6          -0.01093   0.00878  -0.00173  -0.00085   0.00044
           Y6          -0.10283   0.00245   0.03207   0.01600  -0.00172
           Z6           0.00243  -0.05563  -0.00180  -0.00048   0.01008
                          X6        Y6        Z6
           X6           0.31400
           Y6           0.01255   0.07189
           Z6          -0.00972  -0.00195   0.02894
 ITU=  0
     Eigenvalues ---    0.03750   0.04367   0.09091   0.10161   0.13500
     Eigenvalues ---    0.17341   0.26473   0.28827   0.52683   0.69285
     Eigenvalues ---    0.97156   1.56976
 Angle between quadratic step and forces=  36.92 degrees.
 Linear search not attempted -- first point.
 B after Tr=     0.006906    0.005858   -0.013424
         Rot=    1.000000   -0.000037    0.000021   -0.000107 Ang=  -0.01 deg.
 Variable       Old X    -DE/DX   Delta X   Delta X   Delta X     New X
                                 (Linear)    (Quad)   (Total)
    X1       -0.63446   0.01318   0.00000   0.02030   0.02743  -0.60702
    Y1       -1.09590   0.00524   0.00000   0.01819   0.02392  -1.07197
    Z1        0.01529  -0.00526   0.00000  -0.02828  -0.04181  -0.02652
    X2        0.40155  -0.00768   0.00000  -0.02848  -0.02096   0.38059
    Y2       -2.88785   0.00553   0.00000   0.01700   0.02294  -2.86491
    Z2       -0.05648   0.00268   0.00000   0.03482   0.02120  -0.03528
    X3       -2.67762  -0.00007   0.00000   0.01826   0.02542  -2.65220
    Y3       -1.13518  -0.00284   0.00000  -0.00281   0.00248  -1.13270
    Z3       -0.06159   0.00240   0.00000   0.03401   0.02039  -0.04120
    X4        0.62814   0.01217   0.00000   0.00828   0.01495   0.64309
    Y4        1.09051   0.01281   0.00000   0.00608   0.01207   1.10258
    Z4        0.01187  -0.00592   0.00000  -0.02728  -0.04060  -0.02873
    X5       -0.31168   0.00446   0.00000  -0.00037   0.00591  -0.30577
    Y5        2.96569  -0.01642   0.00000  -0.05346  -0.04767   2.91802
    Z5       -0.06622   0.00299   0.00000   0.03412   0.02090  -0.04531
    X6        2.74175  -0.02207   0.00000  -0.05940  -0.05275   2.68901
    Y6        1.20022  -0.00432   0.00000  -0.02018  -0.01375   1.18647
    Z6       -0.06070   0.00310   0.00000   0.03314   0.01991  -0.04079
         Item               Value     Threshold  Converged?
 Maximum Force            0.022069     0.000450     NO 
 RMS     Force            0.009131     0.000300     NO 
 Maximum Displacement     0.052746     0.001800     NO 
 RMS     Displacement     0.027573     0.001200     NO 
 Predicted change in Energy=-1.912750D-03
 GradGradGradGradGradGradGradGradGradGradGradGradGradGradGradGradGradGrad

 Unable to Open any file for archive entry.
 1\1\GINC-BHD0005\Force\RwB97XD\6-311G\C2H4\BWEIGHT\11-Jan-2023\0\\# WB
 97XD/6-311G SCF=XQC FORCE nosym pop=full guess=read\\MD Step 999\\0,1\
 C,-0.33574127,-0.57992306,0.00809285\H,0.21249332,-1.52818434,-0.02988
 933\H,-1.41693513,-0.60071129,-0.03259351\C,0.33239611,0.57707175,0.00
 628196\H,-0.16493556,1.56937681,-0.03503963\H,1.45087407,0.63512708,-0
 .03212206\\Version=ES64L-G16RevC.01\HF=-78.5554353\RMSD=6.358e-09\RMSF
 =9.131e-03\Dipole=-0.0020385,0.0027313,-0.051507\Quadrupole=0.8586243,
 0.8529498,-1.7115741,0.0154709,0.0019375,-0.0030378\PG=C01 [X(C2H4)]\\
 @
 The archive entry for this job was punched.


 BOOKS ARE LIGHTHOUSES ERECTED IN THE GREAT SEA OF TIME.
     -- E.P.WHIPPLE
 Job cpu time:       0 days  0 hours  0 minutes 31.1 seconds.
 Elapsed time:       0 days  0 hours  0 minutes 10.9 seconds.
 File lengths (MBytes):  RWF=    272 Int=      0 D2E=      0 Chk=     32 Scr=     32
 Normal termination of Gaussian 16 at Wed Jan 11 18:46:36 2023.
