 Entering Gaussian System, Link 0=g16
 Initial command:
 /software/gaussian/g16-c01/avx2/g16/l1.exe "/gpfs/fs2/scratch/bweight/software/many_molecule_many_mode_NAMD/src/NAMD/TESTING/G16/TD_NEW_S1/Gau-15163.inp" -scrdir="/gpfs/fs2/scratch/bweight/software/many_molecule_many_mode_NAMD/src/NAMD/TESTING/G16/TD_NEW_S1/"
 Entering Link 1 = /software/gaussian/g16-c01/avx2/g16/l1.exe PID=     15164.
  
 Copyright (c) 1988-2019, Gaussian, Inc.  All Rights Reserved.
  
 This is part of the Gaussian(R) 16 program.  It is based on
 the Gaussian(R) 09 system (copyright 2009, Gaussian, Inc.),
 the Gaussian(R) 03 system (copyright 2003, Gaussian, Inc.),
 the Gaussian(R) 98 system (copyright 1998, Gaussian, Inc.),
 the Gaussian(R) 94 system (copyright 1995, Gaussian, Inc.),
 the Gaussian 92(TM) system (copyright 1992, Gaussian, Inc.),
 the Gaussian 90(TM) system (copyright 1990, Gaussian, Inc.),
 the Gaussian 88(TM) system (copyright 1988, Gaussian, Inc.),
 the Gaussian 86(TM) system (copyright 1986, Carnegie Mellon
 University), and the Gaussian 82(TM) system (copyright 1983,
 Carnegie Mellon University). Gaussian is a federally registered
 trademark of Gaussian, Inc.
  
 This software contains proprietary and confidential information,
 including trade secrets, belonging to Gaussian, Inc.
  
 This software is provided under written license and may be
 used, copied, transmitted, or stored only in accord with that
 written license.
  
 The following legend is applicable only to US Government
 contracts under FAR:
  
                    RESTRICTED RIGHTS LEGEND
  
 Use, reproduction and disclosure by the US Government is
 subject to restrictions as set forth in subparagraphs (a)
 and (c) of the Commercial Computer Software - Restricted
 Rights clause in FAR 52.227-19.
  
 Gaussian, Inc.
 340 Quinnipiac St., Bldg. 40, Wallingford CT 06492
  
  
 ---------------------------------------------------------------
 Warning -- This program may not be used in any manner that
 competes with the business of Gaussian, Inc. or will provide
 assistance to any competitor of Gaussian, Inc.  The licensee
 of this program is prohibited from giving any competitor of
 Gaussian, Inc. access to this program.  By using this program,
 the user acknowledges that Gaussian, Inc. is engaged in the
 business of creating and licensing software in the field of
 computational chemistry and represents and warrants to the
 licensee that it is not a competitor of Gaussian, Inc. and that
 it will not use this program in any manner prohibited above.
 ---------------------------------------------------------------
  

 Cite this work as:
 Gaussian 16, Revision C.01,
 M. J. Frisch, G. W. Trucks, H. B. Schlegel, G. E. Scuseria, 
 M. A. Robb, J. R. Cheeseman, G. Scalmani, V. Barone, 
 G. A. Petersson, H. Nakatsuji, X. Li, M. Caricato, A. V. Marenich, 
 J. Bloino, B. G. Janesko, R. Gomperts, B. Mennucci, H. P. Hratchian, 
 J. V. Ortiz, A. F. Izmaylov, J. L. Sonnenberg, D. Williams-Young, 
 F. Ding, F. Lipparini, F. Egidi, J. Goings, B. Peng, A. Petrone, 
 T. Henderson, D. Ranasinghe, V. G. Zakrzewski, J. Gao, N. Rega, 
 G. Zheng, W. Liang, M. Hada, M. Ehara, K. Toyota, R. Fukuda, 
 J. Hasegawa, M. Ishida, T. Nakajima, Y. Honda, O. Kitao, H. Nakai, 
 T. Vreven, K. Throssell, J. A. Montgomery, Jr., J. E. Peralta, 
 F. Ogliaro, M. J. Bearpark, J. J. Heyd, E. N. Brothers, K. N. Kudin, 
 V. N. Staroverov, T. A. Keith, R. Kobayashi, J. Normand, 
 K. Raghavachari, A. P. Rendell, J. C. Burant, S. S. Iyengar, 
 J. Tomasi, M. Cossi, J. M. Millam, M. Klene, C. Adamo, R. Cammi, 
 J. W. Ochterski, R. L. Martin, K. Morokuma, O. Farkas, 
 J. B. Foresman, and D. J. Fox, Gaussian, Inc., Wallingford CT, 2019.
 
 ******************************************
 Gaussian 16:  ES64L-G16RevC.01  3-Jul-2019
                29-Dec-2022 
 ******************************************
 %oldchk=../GS_NEW/geometry.chk
 %chk=geometry.chk
 %nprocshared=1
 Will use up to    1 processors via shared memory.
 %mem=5GB
 Copying data from "../GS_NEW/geometry.chk" to current chk file "geometry.chk"
 IOpt=  2 FromEx=T IUOpen= 4 IOptOp= 5 NList=   0 IFRang= 0 IUIn= 4 IUOut= 2.
 ----------------------------------------------------------------------
 # BLYP/STO-3G SCF=XQC TD=(singlets,nstates=2,root=1) FORCE nosym pop=f
 ull guess=read
 ----------------------------------------------------------------------
 1/10=7,30=1,38=1/1,3;
 2/12=2,15=1,17=6,18=5,40=1/2;
 3/6=3,11=9,25=1,30=1,71=1,74=402,116=-2/1,2,3,8;
 4/5=1/1;
 5/5=2,8=3,13=1,38=6/2,8;
 8/6=1,10=1,107=1,108=2/1;
 9/8=1,15=2,41=2,42=1,48=1,70=2/14;
 10/5=4,28=1,31=1/2;
 6/7=3,18=1/1;
 7/12=6,13=5,14=1,29=1,30=1/1,2,3,16;
 1/10=7,30=1/3;
 99//99;
 ---------
 MD Step 2
 ---------
 Symbolic Z-matrix:
 Charge =  0 Multiplicity = 1
 H                     0.02279   0.68917  -0.65652 
 H                     0.02286   0.69488   0.70775 
 O                     0.00536  -0.01593   0.00501 
 

 GradGradGradGradGradGradGradGradGradGradGradGradGradGradGradGradGradGrad
 Berny optimization.
 Initialization pass.
 Trust Radius=3.00D-01 FncErr=1.00D-07 GrdErr=1.00D-07 EigMax=2.50D+02 EigMin=1.00D-04
 Number of steps in this run=      2 maximum allowed number of steps=      2.
 GradGradGradGradGradGradGradGradGradGradGradGradGradGradGradGradGradGrad

                          Input orientation:                          
 ---------------------------------------------------------------------
 Center     Atomic      Atomic             Coordinates (Angstroms)
 Number     Number       Type             X           Y           Z
 ---------------------------------------------------------------------
      1          1           0        0.022787    0.689173   -0.656517
      2          1           0        0.022862    0.694883    0.707746
      3          8           0        0.005365   -0.015934    0.005015
 ---------------------------------------------------------------------
                    Distance matrix (angstroms):
                    1          2          3
     1  H    0.000000
     2  H    1.364276   0.000000
     3  O    0.967008   0.999699   0.000000
 Symmetry turned off by external request.
 Stoichiometry    H2O
 Framework group  CS[SG(H2O)]
 Deg. of freedom     3
 Full point group                 CS      NOp   2
 Rotational constants (GHZ):         573.0762637         529.4471107         275.1992194
 Standard basis: STO-3G (5D, 7F)
     7 basis functions,    21 primitive gaussians,     7 cartesian basis functions
     5 alpha electrons        5 beta electrons
       nuclear repulsion energy         9.0004268039 Hartrees.
 NAtoms=    3 NActive=    3 NUniq=    3 SFac= 1.00D+00 NAtFMM=   60 NAOKFM=F Big=F
 Integral buffers will be    131072 words long.
 Regular integral format.
 Two-electron integral symmetry is turned off.
 One-electron integrals computed using PRISM.
 NBasis=     7 RedAO= T EigKep=  3.60D-01  NBF=     7
 NBsUse=     7 1.00D-06 EigRej= -1.00D+00 NBFU=     7
 Initial guess from the checkpoint file:  "geometry.chk"
 B after Tr=     0.000000    0.000000    0.000000
         Rot=    1.000000    0.000000    0.000000    0.000000 Ang=   0.00 deg.
 Keep J ints in memory in canonical form, NReq=851194.
 Requested convergence on RMS density matrix=1.00D-08 within  32 cycles.
 Requested convergence on MAX density matrix=1.00D-06.
 Requested convergence on             energy=1.00D-06.
 No special actions if energy rises.
 Skip diagonalization as Alpha Fock matrix is already diagonal.
 SCF Done:  E(RB-LYP) =  -75.2805574252     A.U. after    1 cycles
            NFock=  1  Conv=0.00D+00     -V/T= 2.0095
 QCSCF skips out because SCF is already converged.
 DoSCS=F DFT=T ScalE2(SS,OS)=  1.000000  1.000000
 ExpMin= 1.69D-01 ExpMax= 1.31D+02 ExpMxC= 1.31D+02 IAcc=3 IRadAn=         5 AccDes= 0.00D+00
 HarFok:  IExCor=  205 AccDes= 0.00D+00 IRadAn=         5 IDoV=-2 UseB2=F ITyADJ=14
 ICtDFT= 12500011 ScaDFX=  1.000000  1.000000  1.000000  1.000000
 Range of M.O.s used for correlation:     2     7
 NBasis=     7 NAE=     5 NBE=     5 NFC=     1 NFV=     0
 NROrb=      6 NOA=     4 NOB=     4 NVA=     2 NVB=     2
 Keep J ints in memory in canonical form, NReq=869657.
     8 initial guesses have been made.
 Convergence on wavefunction:    0.000001000000000
 Iteration     1 Dimension     8 NMult     0 NNew      8
 CISAX will form     8 AO SS matrices at one time.
 ***********************************************************************
 Excited states from <AA,BB:AA,BB> singles matrix:
 ***********************************************************************
 
 Ground to excited state transition densities written to RWF  633
 Ground to excited state transition electric dipole moments (Au):
       state          X           Y           Z        Dip. S.      Osc.
         1         0.0655     -0.0016      0.0000      0.0043      0.0011
         2         0.0192     -0.0005      0.0000      0.0004      0.0001
 Ground to excited state transition velocity dipole moments (Au):
       state          X           Y           Z        Dip. S.      Osc.
         1         0.1122     -0.0028      0.0000      0.0126      0.0209
         2         0.0319     -0.0008      0.0000      0.0010      0.0015
 Ground to excited state transition magnetic dipole moments (Au):
       state          X           Y           Z
         1         0.0051      0.2072     -0.5949
         2        -0.0161     -0.6536     -0.1651
 Ground to excited state transition velocity quadrupole moments (Au):
       state          XX          YY          ZZ          XY          XZ          YZ
         1         0.0060     -0.0035      0.0000      0.0713      0.0227     -0.0006
         2         0.0018     -0.0011     -0.0000      0.0219     -0.0789      0.0019
 <0|del|b> * <b|rxdel|0> + <0|del|b> * <b|delr+rdel|0>
 Rotatory Strengths (R) in cgs (10**-40 erg-esu-cm/Gauss)
       state          XX          YY          ZZ    R(velocity)    E-M Angle
         1        -0.4527      0.4502      0.0025     -0.0000       90.00
         2         0.3477     -0.3478      0.0002      0.0000       90.00
 1/2[<0|r|b>*<b|rxdel|0> + (<0|rxdel|b>*<b|r|0>)*]
 Rotatory Strengths (R) in cgs (10**-40 erg-esu-cm/Gauss)
       state          XX          YY          ZZ     R(length)
         1        -0.2381      0.2368      0.0013     -0.0000
         2         0.2185     -0.2186      0.0001      0.0000
  1/2[<0|del|b>*<b|r|0> + (<0|r|b>*<b|del|0>)*] (Au)
       state          X           Y           Z        Dip. S.   Osc.(frdel)
         1         0.0073      0.0000      0.0000     -0.0074     -0.0049
         2         0.0006      0.0000      0.0000     -0.0006     -0.0004

 Excitation energies and oscillator strengths:
 
 Excited state symmetry could not be determined.
 Excited State   1:      Singlet-?Sym   10.9073 eV  113.67 nm  f=0.0011  <S**2>=0.000
       5 ->  6         0.70608
 This state for optimization and/or second-order correction.
 Total Energy, E(TD-HF/TD-DFT) =  -74.8797201140    
 Copying the excited state density for this state as the 1-particle RhoCI density.
 
 Excited state symmetry could not be determined.
 Excited State   2:      Singlet-?Sym   12.5198 eV   99.03 nm  f=0.0001  <S**2>=0.000
       5 ->  7         0.70551
 SavETr:  write IOETrn=   770 NScale= 10 NData=  16 NLR=1 NState=    2 LETran=      46.
          IDoAtm=111
          Differentiating once with respect to electric field.
                with respect to dipole field.
          Differentiating once with respect to nuclear coordinates.
 Keep J ints in memory in canonical form, NReq=853162.
          There are     1 degrees of freedom in the 1st order CPHF.  IDoFFX=0 NUNeed=     1.
 LinEq1:  Iter=  0 NonCon=     1 RMS=3.00D-01 Max=6.37D-01 NDo=     1
 AX will form     1 AO Fock derivatives at one time.
 LinEq1:  Iter=  1 NonCon=     1 RMS=5.42D-02 Max=1.04D-01 NDo=     1
 LinEq1:  Iter=  2 NonCon=     1 RMS=9.44D-03 Max=1.74D-02 NDo=     1
 LinEq1:  Iter=  3 NonCon=     1 RMS=9.75D-04 Max=1.78D-03 NDo=     1
 LinEq1:  Iter=  4 NonCon=     1 RMS=3.40D-05 Max=1.01D-04 NDo=     1
 LinEq1:  Iter=  5 NonCon=     1 RMS=3.27D-06 Max=7.37D-06 NDo=     1
 LinEq1:  Iter=  6 NonCon=     1 RMS=5.78D-10 Max=1.82D-09 NDo=     1
 LinEq1:  Iter=  7 NonCon=     0 RMS=9.99D-13 Max=2.38D-12 NDo=     1
 Linear equations converged to 1.000D-10 1.000D-09 after     7 iterations.
 End of Minotr F.D. properties file   721 does not exist.
 End of Minotr F.D. properties file   722 does not exist.
 End of Minotr F.D. properties file   788 does not exist.

 **********************************************************************

            Population analysis using the SCF Density.

 **********************************************************************

 Alpha  occ. eigenvalues --  -18.50077  -0.84178  -0.34030  -0.20708  -0.07295
 Alpha virt. eigenvalues --    0.29404   0.37084
     Molecular Orbital Coefficients:
                           1         2         3         4         5
                           O         O         O         O         O
     Eigenvalues --   -18.50077  -0.84178  -0.34030  -0.20708  -0.07295
   1 1   H  1S         -0.00714   0.18401  -0.44946   0.30140   0.00000
   2 2   H  1S         -0.00661   0.16809   0.46140   0.30690   0.00000
   3 3   O  1S          0.99336  -0.22350  -0.00381   0.13820   0.00000
   4        2S          0.02978   0.78599   0.01989  -0.67030  -0.00000
   5        2PX         0.00012   0.00531  -0.00027   0.01686   0.99970
   6        2PY         0.00506   0.21514  -0.00956   0.68350  -0.02466
   7        2PZ        -0.00017  -0.00690   0.63626   0.00913   0.00005
                           6         7
                           V         V
     Eigenvalues --     0.29404   0.37084
   1 1   H  1S          0.57737   0.98692
   2 2   H  1S          0.88538  -0.66620
   3 3   O  1S          0.11424   0.02595
   4        2S         -0.75437  -0.18325
   5        2PX        -0.02005  -0.00462
   6        2PY        -0.81329  -0.18552
   7        2PZ        -0.19185   0.90431
     Density Matrix:
                           1         2         3         4         5
   1 1   H  1S          0.65353
   2 2   H  1S         -0.16781   0.67075
   3 3   O  1S         -0.00971  -0.00696   2.11167
   4        2S         -0.13311  -0.12923  -0.47761   2.13672
   5        2PX         0.01235   0.01188   0.00254  -0.01426   1.99941
   6        2PY         0.49971   0.48296   0.10288  -0.57818  -0.02396
   7        2PZ        -0.56898   0.59043   0.00042   0.00221  -0.00001
                           6         7
   6        2PY         1.02837
   7        2PZ        -0.00266   0.80991
    Full Mulliken population analysis:
                           1         2         3         4         5
   1 1   H  1S          0.65353
   2 2   H  1S         -0.05214   0.67075
   3 3   O  1S         -0.00051  -0.00034   2.11167
   4        2S         -0.06235  -0.05781  -0.11305   2.13672
   5        2PX         0.00009   0.00008   0.00000   0.00000   1.99941
   6        2PY         0.14211   0.12991   0.00000   0.00000   0.00000
   7        2PZ         0.15181   0.15701   0.00000   0.00000   0.00000
                           6         7
   6        2PY         1.02837
   7        2PZ         0.00000   0.80991
     Gross orbital populations:
                           1
   1 1   H  1S          0.83255
   2 2   H  1S          0.84747
   3 3   O  1S          1.99776
   4        2S          1.90351
   5        2PX         1.99957
   6        2PY         1.30040
   7        2PZ         1.11873
          Condensed to atoms (all electrons):
               1          2          3
     1  H    0.653532  -0.052135   0.231153
     2  H   -0.052135   0.670750   0.228857
     3  O    0.231153   0.228857   7.859968
 Mulliken charges:
               1
     1  H    0.167450
     2  H    0.152528
     3  O   -0.319978
 Sum of Mulliken charges =   0.00000
 Mulliken charges with hydrogens summed into heavy atoms:
               1
     3  O    0.000000
 Electronic spatial extent (au):  <R**2>=             18.4857
 Charge=              0.0000 electrons
 Dipole moment (field-independent basis, Debye):
    X=              0.0410    Y=              1.6625    Z=             -0.0091  Tot=              1.6630
 Quadrupole moment (field-independent basis, Debye-Ang):
   XX=             -6.1343   YY=             -4.7429   ZZ=             -4.8932
   XY=              0.0439   XZ=              0.0005   YZ=              0.0242
 Traceless Quadrupole moment (field-independent basis, Debye-Ang):
   XX=             -0.8775   YY=              0.5139   ZZ=              0.3636
   XY=              0.0439   XZ=              0.0005   YZ=              0.0242
 Octapole moment (field-independent basis, Debye-Ang**2):
  XXX=             -0.1664  YYY=             -1.7211  ZZZ=             -0.1494  XYY=             -0.0294
  XXY=             -0.8162  XXZ=             -0.0682  XZZ=             -0.0348  YZZ=             -0.2706
  YYZ=             -0.0461  XYZ=              0.0007
 Hexadecapole moment (field-independent basis, Debye-Ang**3):
 XXXX=             -3.2803 YYYY=             -6.0781 ZZZZ=             -6.4590 XXXY=             -0.0566
 XXXZ=             -0.0033 YYYX=             -0.0365 YYYZ=             -0.0708 ZZZX=             -0.0019
 ZZZY=             -0.0440 XXYY=             -1.6663 XXZZ=             -1.7013 YYZZ=             -1.7594
 XXYZ=             -0.0295 YYXZ=             -0.0006 ZZXY=             -0.0030
 N-N= 9.000426803939D+00 E-N=-1.964721893235D+02  KE= 7.457464490757D+01
 Orbital energies and kinetic energies (alpha):
                                 1                 2
   1         O               -18.500769         28.610234
   2         O                -0.841776          2.267433
   3         O                -0.340302          1.542472
   4         O                -0.207085          2.338452
   5         O                -0.072946          2.528731
   6         V                 0.294036          2.785868
   7         V                 0.370842          2.649407
 Total kinetic energy from orbitals= 7.457464490757D+01
 Calling FoFJK, ICntrl=  10005527 FMM=F ISym2X=0 I1Cent= 0 IOpClX= 0 NMat=1 NMatS=1 NMatT=0.
 -------------------------------------------------------------------
 Center     Atomic                   Forces (Hartrees/Bohr)
 Number     Number              X              Y              Z
 -------------------------------------------------------------------
      1        1           0.003169486    0.128178147   -0.160222914
      2        1           0.006536953    0.265628013    0.302251657
      3        8          -0.009706439   -0.393806160   -0.142028744
 -------------------------------------------------------------------
 Cartesian Forces:  Max     0.393806160 RMS     0.205322990

 GradGradGradGradGradGradGradGradGradGradGradGradGradGradGradGradGradGrad
 Berny optimization.
 Search for a local minimum.
 Step number   1 out of a maximum of    2
 All quantities printed in internal units (Hartrees-Bohrs-Radians)
 Second derivative matrix not updated -- first step.
 The second derivative matrix:
                          X1        Y1        Z1        X2        Y2
           X1           0.00019
           Y1           0.00764   0.30948
           Z1          -0.00607  -0.24543   0.27818
           X2           0.00001   0.00055   0.00059   0.00016
           Y2           0.00055   0.02227   0.02376   0.00649   0.26350
           Z2          -0.00055  -0.02254  -0.02404   0.00532   0.21621
           X3          -0.00020  -0.00820   0.00548  -0.00017  -0.00704
           Y3          -0.00819  -0.33175   0.22167  -0.00704  -0.28578
           Z3           0.00662   0.26797  -0.25413  -0.00591  -0.23997
                          Z2        X3        Y3        Z3
           Z2           0.25858
           X3          -0.00477   0.00038
           Y3          -0.19367   0.01523   0.61753
           Z3          -0.23454  -0.00071  -0.02801   0.48867
 ITU=  0
     Eigenvalues ---    0.12376   0.78967   0.91430
 Quadratic step=9.717D-01 exceeds max=3.000D-01 adjusted using Lamda=-1.072D+00.
 Angle between NR and scaled steps=  32.91 degrees.
 Angle between quadratic step and forces=  23.90 degrees.
 Linear search not attempted -- first point.
 B after Tr=    -0.001367   -0.055492   -0.030341
         Rot=    0.999987   -0.005101    0.000126   -0.000000 Ang=  -0.58 deg.
 Variable       Old X    -DE/DX   Delta X   Delta X   Delta X     New X
                                 (Linear)    (Quad)   (Total)
    X1        0.04306   0.00317   0.00000   0.00205   0.00102   0.04408
    Y1        1.30235   0.12818   0.00000   0.08307   0.04106   1.34340
    Z1       -1.24064  -0.16022   0.00000  -0.08803  -0.10416  -1.34480
    X2        0.04320   0.00654   0.00000   0.00437   0.00261   0.04582
    Y2        1.31314   0.26563   0.00000   0.17735   0.10625   1.41938
    Z2        1.33745   0.30225   0.00000   0.18535   0.17015   1.50760
    X3        0.01014  -0.00971   0.00000  -0.00227  -0.00363   0.00651
    Y3       -0.03011  -0.39381   0.00000  -0.09207  -0.14730  -0.17741
    Z3        0.00948  -0.14203   0.00000  -0.03441  -0.06599  -0.05652
         Item               Value     Threshold  Converged?
 Maximum Force            0.393806     0.000450     NO 
 RMS     Force            0.205323     0.000300     NO 
 Maximum Displacement     0.170152     0.001800     NO 
 RMS     Displacement     0.093600     0.001200     NO 
 Predicted change in Energy=-1.328829D-01
 GradGradGradGradGradGradGradGradGradGradGradGradGradGradGradGradGradGrad

 Unable to Open any file for archive entry.
 1\1\GINC-BLUEHIVE\Force\RBLYP TD-FC\STO-3G\H2O1\BWEIGHT\29-Dec-2022\0\
 \# BLYP/STO-3G SCF=XQC TD=(singlets,nstates=2,root=1) FORCE nosym pop=
 full guess=read\\MD Step 2\\0,1\H,0.02278707,0.68917313,-0.65651738\H,
 0.02286242,0.6948825,0.70774618\O,0.00536492,-0.01593397,0.00501499\\V
 ersion=ES64L-G16RevC.01\HF=-75.2805574\RMSD=0.000e+00\RMSF=2.053e-01\D
 ipole=0.0009309,0.0371053,-0.3304438\PG=CS [SG(H2O1)]\\@
 The archive entry for this job was punched.


 "MATHEMATICS IS THE ART OF GIVING THE SAME NAME
 TO DIFFERENT THINGS."
                    - H. POINCARE
 Job cpu time:       0 days  0 hours  0 minutes  4.5 seconds.
 Elapsed time:       0 days  0 hours  0 minutes  8.0 seconds.
 File lengths (MBytes):  RWF=    272 Int=      0 D2E=      0 Chk=     32 Scr=     32
 Normal termination of Gaussian 16 at Thu Dec 29 18:06:29 2022.
