 Entering Gaussian System, Link 0=g16
 Initial command:
 /software/gaussian/g16-c01/avx2/g16/l1.exe "/gpfs/fs2/scratch/bweight/software/many_molecule_many_mode_NAMD/src/NAMD/TEST_NVT/TRAJ/traj-95/G16/GS_NEW/Gau-45523.inp" -scrdir="/gpfs/fs2/scratch/bweight/software/many_molecule_many_mode_NAMD/src/NAMD/TEST_NVT/TRAJ/traj-95/G16/GS_NEW/"
 Entering Link 1 = /software/gaussian/g16-c01/avx2/g16/l1.exe PID=     45524.
  
 Copyright (c) 1988-2019, Gaussian, Inc.  All Rights Reserved.
  
 This is part of the Gaussian(R) 16 program.  It is based on
 the Gaussian(R) 09 system (copyright 2009, Gaussian, Inc.),
 the Gaussian(R) 03 system (copyright 2003, Gaussian, Inc.),
 the Gaussian(R) 98 system (copyright 1998, Gaussian, Inc.),
 the Gaussian(R) 94 system (copyright 1995, Gaussian, Inc.),
 the Gaussian 92(TM) system (copyright 1992, Gaussian, Inc.),
 the Gaussian 90(TM) system (copyright 1990, Gaussian, Inc.),
 the Gaussian 88(TM) system (copyright 1988, Gaussian, Inc.),
 the Gaussian 86(TM) system (copyright 1986, Carnegie Mellon
 University), and the Gaussian 82(TM) system (copyright 1983,
 Carnegie Mellon University). Gaussian is a federally registered
 trademark of Gaussian, Inc.
  
 This software contains proprietary and confidential information,
 including trade secrets, belonging to Gaussian, Inc.
  
 This software is provided under written license and may be
 used, copied, transmitted, or stored only in accord with that
 written license.
  
 The following legend is applicable only to US Government
 contracts under FAR:
  
                    RESTRICTED RIGHTS LEGEND
  
 Use, reproduction and disclosure by the US Government is
 subject to restrictions as set forth in subparagraphs (a)
 and (c) of the Commercial Computer Software - Restricted
 Rights clause in FAR 52.227-19.
  
 Gaussian, Inc.
 340 Quinnipiac St., Bldg. 40, Wallingford CT 06492
  
  
 ---------------------------------------------------------------
 Warning -- This program may not be used in any manner that
 competes with the business of Gaussian, Inc. or will provide
 assistance to any competitor of Gaussian, Inc.  The licensee
 of this program is prohibited from giving any competitor of
 Gaussian, Inc. access to this program.  By using this program,
 the user acknowledges that Gaussian, Inc. is engaged in the
 business of creating and licensing software in the field of
 computational chemistry and represents and warrants to the
 licensee that it is not a competitor of Gaussian, Inc. and that
 it will not use this program in any manner prohibited above.
 ---------------------------------------------------------------
  

 Cite this work as:
 Gaussian 16, Revision C.01,
 M. J. Frisch, G. W. Trucks, H. B. Schlegel, G. E. Scuseria, 
 M. A. Robb, J. R. Cheeseman, G. Scalmani, V. Barone, 
 G. A. Petersson, H. Nakatsuji, X. Li, M. Caricato, A. V. Marenich, 
 J. Bloino, B. G. Janesko, R. Gomperts, B. Mennucci, H. P. Hratchian, 
 J. V. Ortiz, A. F. Izmaylov, J. L. Sonnenberg, D. Williams-Young, 
 F. Ding, F. Lipparini, F. Egidi, J. Goings, B. Peng, A. Petrone, 
 T. Henderson, D. Ranasinghe, V. G. Zakrzewski, J. Gao, N. Rega, 
 G. Zheng, W. Liang, M. Hada, M. Ehara, K. Toyota, R. Fukuda, 
 J. Hasegawa, M. Ishida, T. Nakajima, Y. Honda, O. Kitao, H. Nakai, 
 T. Vreven, K. Throssell, J. A. Montgomery, Jr., J. E. Peralta, 
 F. Ogliaro, M. J. Bearpark, J. J. Heyd, E. N. Brothers, K. N. Kudin, 
 V. N. Staroverov, T. A. Keith, R. Kobayashi, J. Normand, 
 K. Raghavachari, A. P. Rendell, J. C. Burant, S. S. Iyengar, 
 J. Tomasi, M. Cossi, J. M. Millam, M. Klene, C. Adamo, R. Cammi, 
 J. W. Ochterski, R. L. Martin, K. Morokuma, O. Farkas, 
 J. B. Foresman, and D. J. Fox, Gaussian, Inc., Wallingford CT, 2019.
 
 ******************************************
 Gaussian 16:  ES64L-G16RevC.01  3-Jul-2019
                11-Jan-2023 
 ******************************************
 %oldchk=../GS_OLD/geometry.chk
 %chk=geometry.chk
 %nprocshared=4
 Will use up to    4 processors via shared memory.
 %mem=5GB
 Copying data from "../GS_OLD/geometry.chk" to current chk file "geometry.chk"
 IOpt=  2 FromEx=T IUOpen= 4 IOptOp= 5 NList=   0 IFRang= 0 IUIn= 4 IUOut= 2.
 -------------------------------------------------------
 # WB97XD/6-311G SCF=XQC FORCE nosym pop=full guess=read
 -------------------------------------------------------
 1/10=7,30=1,38=1/1,3;
 2/12=2,15=1,17=6,18=5,40=1/2;
 3/5=4,6=6,11=2,25=1,30=1,71=1,74=-58,116=-2/1,2,3;
 4/5=1/1;
 5/5=2,8=3,13=1,38=6/2,8;
 6/7=3,28=1/1;
 7/29=1,30=1/1,2,3,16;
 1/10=7,30=1/3;
 99//99;
 ------------
 MD Step 1000
 ------------
 Symbolic Z-matrix:
 Charge =  0 Multiplicity = 1
 C                    -0.33544  -0.58017   0.00709 
 H                     0.2118   -1.53515  -0.02629 
 H                    -1.42107  -0.59475  -0.02685 
 C                     0.33382   0.57863   0.00633 
 H                    -0.16684   1.55824  -0.02965 
 H                     1.44328   0.63793  -0.02926 
 

 GradGradGradGradGradGradGradGradGradGradGradGradGradGradGradGradGradGrad
 Berny optimization.
 Initialization pass.
 Trust Radius=3.00D-01 FncErr=1.00D-07 GrdErr=1.00D-07 EigMax=2.50D+02 EigMin=1.00D-04
 Number of steps in this run=      2 maximum allowed number of steps=      2.
 GradGradGradGradGradGradGradGradGradGradGradGradGradGradGradGradGradGrad

                          Input orientation:                          
 ---------------------------------------------------------------------
 Center     Atomic      Atomic             Coordinates (Angstroms)
 Number     Number       Type             X           Y           Z
 ---------------------------------------------------------------------
      1          6           0       -0.335437   -0.580169    0.007090
      2          1           0        0.211800   -1.535147   -0.026293
      3          1           0       -1.421065   -0.594748   -0.026855
      4          6           0        0.333820    0.578626    0.006334
      5          1           0       -0.166838    1.558243   -0.029655
      6          1           0        1.443277    0.637927   -0.029262
 ---------------------------------------------------------------------
                    Distance matrix (angstroms):
                    1          2          3          4          5
     1  C    0.000000
     2  H    1.101165   0.000000
     3  H    1.086256   1.884303   0.000000
     4  C    1.338175   2.117543   2.111287   0.000000
     5  H    2.145363   3.116478   2.491679   1.100728   0.000000
     6  H    2.156132   2.497758   3.118325   1.111611   1.854576
                    6
     6  H    0.000000
 Symmetry turned off by external request.
 Stoichiometry    C2H4
 Framework group  C1[X(C2H4)]
 Deg. of freedom    12
 Full point group                 C1      NOp   1
 Rotational constants (GHZ):         143.3018559          29.6888809          24.6035991
 Standard basis: 6-311G (5D, 7F)
    38 basis functions,    72 primitive gaussians,    38 cartesian basis functions
     8 alpha electrons        8 beta electrons
       nuclear repulsion energy        33.0688892676 Hartrees.
 NAtoms=    6 NActive=    6 NUniq=    6 SFac= 1.00D+00 NAtFMM=   60 NAOKFM=F Big=F
 Integral buffers will be    131072 words long.
 Raffenetti 2 integral format.
 Two-electron integral symmetry is turned off.
 Nuclear repulsion after empirical dispersion term =       33.0680477665 Hartrees.
 One-electron integrals computed using PRISM.
 NBasis=    38 RedAO= T EigKep=  6.43D-03  NBF=    38
 NBsUse=    38 1.00D-06 EigRej= -1.00D+00 NBFU=    38
 Initial guess from the checkpoint file:  "geometry.chk"
 B after Tr=    -0.000277   -0.000469   -0.000548
         Rot=    1.000000    0.000003   -0.000000    0.000004 Ang=   0.00 deg.
 Keep R1 ints in memory in canonical form, NReq=4036876.
 Requested convergence on RMS density matrix=1.00D-08 within  32 cycles.
 Requested convergence on MAX density matrix=1.00D-06.
 Requested convergence on             energy=1.00D-06.
 No special actions if energy rises.
 SCF Done:  E(RwB97XD) =  -78.5559975472     A.U. after    8 cycles
            NFock=  8  Conv=0.63D-08     -V/T= 2.0052
 QCSCF skips out because SCF is already converged.

 **********************************************************************

            Population analysis using the SCF Density.

 **********************************************************************

 Alpha  occ. eigenvalues --  -10.29004 -10.28823  -0.86374  -0.67223  -0.55913
 Alpha  occ. eigenvalues --   -0.50941  -0.43679  -0.35683
 Alpha virt. eigenvalues --    0.07972   0.14097   0.16470   0.17024   0.24090
 Alpha virt. eigenvalues --    0.37570   0.39325   0.39700   0.46455   0.48802
 Alpha virt. eigenvalues --    0.49381   0.59107   0.66558   0.69089   0.77315
 Alpha virt. eigenvalues --    0.77544   0.84159   0.95214   2.23188   2.29004
 Alpha virt. eigenvalues --    2.33251   2.40628   2.67125   2.81742   2.87878
 Alpha virt. eigenvalues --    2.95192   3.14000   3.31855  23.35239  23.70592
     Molecular Orbital Coefficients:
                           1         2         3         4         5
                           O         O         O         O         O
     Eigenvalues --   -10.29004 -10.28823  -0.86374  -0.67223  -0.55913
   1 1   C  1S          0.14123   0.54541  -0.08819   0.06701  -0.00052
   2        2S          0.11643   0.44884  -0.13937   0.10734  -0.00085
   3        2PX         0.00016  -0.00003   0.02583   0.03736   0.13630
   4        2PY         0.00028  -0.00004   0.04655   0.06058  -0.07197
   5        2PZ         0.00000  -0.00001  -0.00133   0.00206   0.00023
   6        3S          0.00281   0.01434   0.37378  -0.29299   0.00237
   7        3PX        -0.00058   0.00047   0.03391   0.05973   0.21331
   8        3PY        -0.00098   0.00084   0.06076   0.09816  -0.11368
   9        3PZ        -0.00002  -0.00003  -0.00223   0.00370   0.00033
  10        4S          0.00224  -0.01485   0.19144  -0.22817   0.00179
  11        4PX         0.00138  -0.00164   0.00482   0.02384   0.11122
  12        4PY         0.00236  -0.00283   0.00871   0.04084  -0.06031
  13        4PZ         0.00001   0.00008  -0.00081   0.00187   0.00015
  14 2   H  1S         -0.00005  -0.00005   0.05179  -0.08756   0.09993
  15        2S         -0.00029   0.00013   0.05317  -0.10554   0.12675
  16        3S          0.00093   0.00160  -0.00165  -0.01517   0.04101
  17 3   H  1S         -0.00006  -0.00007   0.05358  -0.09182  -0.10367
  18        2S         -0.00029   0.00011   0.05429  -0.10961  -0.13030
  19        3S          0.00096   0.00164  -0.00165  -0.01627  -0.04207
  20 4   C  1S          0.54538  -0.14142  -0.08705  -0.06820  -0.00024
  21        2S          0.44891  -0.11619  -0.13748  -0.10935  -0.00038
  22        2PX        -0.00004  -0.00016  -0.02769   0.03682   0.11945
  23        2PY        -0.00005  -0.00028  -0.04645   0.06614  -0.07583
  24        2PZ        -0.00000   0.00000  -0.00123  -0.00228   0.00022
  25        3S          0.01379  -0.00449   0.36840   0.29875   0.00106
  26        3PX        -0.00016   0.00074  -0.03498   0.05978   0.18728
  27        3PY        -0.00024   0.00128  -0.05858   0.10661  -0.11770
  28        3PZ        -0.00004  -0.00000  -0.00210  -0.00408   0.00034
  29        4S         -0.01167   0.00924   0.18931   0.23648  -0.00023
  30        4PX         0.00075  -0.00197  -0.00546   0.02607   0.10232
  31        4PY         0.00125  -0.00343  -0.00895   0.04483  -0.06329
  32        4PZ         0.00008  -0.00003  -0.00083  -0.00208   0.00017
  33 5   H  1S         -0.00007  -0.00003   0.05057   0.09340  -0.09246
  34        2S         -0.00004  -0.00031   0.05156   0.11145  -0.11659
  35        3S          0.00183   0.00002  -0.00118   0.01676  -0.03744
  36 6   H  1S         -0.00005  -0.00003   0.04912   0.09105   0.08738
  37        2S         -0.00005  -0.00032   0.05074   0.10929   0.11077
  38        3S          0.00178   0.00002  -0.00123   0.01605   0.03591
                           6         7         8         9        10
                           O         O         O         V         V
     Eigenvalues --    -0.50941  -0.43679  -0.35683   0.07972   0.14097
   1 1   C  1S         -0.00430   0.00024  -0.00100   0.00289  -0.03361
   2        2S         -0.00652   0.00042  -0.00163   0.00480  -0.05391
   3        2PX         0.09376  -0.11272  -0.00369   0.00154  -0.03066
   4        2PY         0.16799   0.06713  -0.00630   0.00267  -0.06509
   5        2PZ         0.00557  -0.00000   0.17932  -0.18903  -0.00261
   6        3S          0.02374  -0.00096   0.00474  -0.01455   0.11747
   7        3PX         0.13617  -0.17977  -0.00520   0.00235  -0.03569
   8        3PY         0.24592   0.10775  -0.00888   0.00401  -0.08038
   9        3PZ         0.00882   0.00004   0.28817  -0.27790  -0.00416
  10        4S         -0.04935  -0.00398   0.00747  -0.01560   1.22123
  11        4PX         0.06864  -0.11186  -0.00414   0.01347  -0.19303
  12        4PY         0.12540   0.06773  -0.00712   0.02303  -0.39227
  13        4PZ         0.00500   0.00007   0.26711  -0.69485  -0.01507
  14 2   H  1S         -0.08063  -0.11672   0.00018   0.00445  -0.01703
  15        2S         -0.11154  -0.18083   0.00214   0.00701  -0.04774
  16        3S         -0.04177  -0.08388   0.00130   0.01886  -0.84387
  17 3   H  1S         -0.07843   0.11408   0.00015   0.00448  -0.01251
  18        2S         -0.10773   0.17563   0.00213   0.00712  -0.03716
  19        3S         -0.03997   0.08116   0.00131   0.01852  -0.76956
  20 4   C  1S         -0.00775  -0.00052  -0.00096  -0.00292  -0.03601
  21        2S         -0.01209  -0.00087  -0.00157  -0.00484  -0.05782
  22        2PX        -0.09908   0.12307   0.00365   0.00190   0.04142
  23        2PY        -0.16215  -0.07266   0.00652   0.00328   0.06079
  24        2PZ         0.00577   0.00015   0.17915   0.18932  -0.00333
  25        3S          0.03951   0.00245   0.00465   0.01450   0.12747
  26        3PX        -0.14663   0.19713   0.00512   0.00289   0.05119
  27        3PY        -0.23801  -0.11546   0.00915   0.00503   0.07213
  28        3PZ         0.00914   0.00020   0.28693   0.27773  -0.00506
  29        4S         -0.03245   0.00347   0.00716   0.01729   1.24462
  30        4PX        -0.07639   0.12540   0.00405   0.01431   0.26394
  31        4PY        -0.12249  -0.07267   0.00735   0.02489   0.40424
  32        4PZ         0.00530   0.00010   0.26730   0.69562  -0.01990
  33 5   H  1S         -0.07434  -0.12343   0.00020  -0.00447  -0.01205
  34        2S         -0.10159  -0.19196   0.00229  -0.00744  -0.03689
  35        3S         -0.03788  -0.08993   0.00126  -0.01913  -0.81196
  36 6   H  1S         -0.08087   0.12312   0.00016  -0.00450  -0.01632
  37        2S         -0.11105   0.19262   0.00226  -0.00754  -0.04773
  38        3S         -0.04163   0.09031   0.00122  -0.01963  -0.88711
                          11        12        13        14        15
                           V         V         V         V         V
     Eigenvalues --     0.16470   0.17024   0.24090   0.37570   0.39325
   1 1   C  1S          0.00091  -0.04513   0.00011   0.01148   0.00262
   2        2S          0.00146  -0.07354   0.00018   0.01638   0.00442
   3        2PX         0.09785  -0.02057   0.10000  -0.03767  -0.02653
   4        2PY        -0.05422  -0.03733  -0.05730  -0.06901   0.00671
   5        2PZ         0.00007  -0.00710  -0.00001  -0.00499  -0.00020
   6        3S         -0.00297   0.16577   0.00018   0.02646  -0.00704
   7        3PX         0.14007  -0.01250   0.10663  -0.05136  -0.11413
   8        3PY        -0.07856  -0.02481  -0.06236  -0.09984   0.03488
   9        3PZ         0.00009  -0.00979  -0.00006  -0.00965   0.00021
  10        4S         -0.04957   1.42795  -0.02699  -2.83191  -0.39944
  11        4PX         0.57831  -0.12062   1.16199  -1.59837  -0.55337
  12        4PY        -0.30995  -0.20542  -0.66535  -2.78368   0.11644
  13        4PZ         0.00060  -0.04655   0.00055  -0.04752  -0.00279
  14 2   H  1S         -0.02999  -0.02510   0.01204  -0.05393   0.07935
  15        2S         -0.07936  -0.01709  -0.02578  -0.62026   0.83012
  16        3S         -1.02698  -0.99128  -1.53581  -0.33962  -0.37689
  17 3   H  1S          0.02865  -0.02511  -0.01453  -0.04561  -0.07361
  18        2S          0.07758  -0.02132   0.01916  -0.55360  -0.71500
  19        3S          1.08981  -1.01415   1.57201  -0.42765   0.24538
  20 4   C  1S          0.00188   0.04272  -0.00013  -0.01968   0.00014
  21        2S          0.00302   0.06956  -0.00023  -0.03200   0.00067
  22        2PX         0.09996  -0.02437  -0.10020  -0.04200  -0.03127
  23        2PY        -0.06144  -0.03634   0.05747  -0.07504   0.01085
  24        2PZ         0.00024   0.00711   0.00002   0.00406   0.00076
  25        3S         -0.00622  -0.15488   0.00030   0.03476  -0.00983
  26        3PX         0.14399  -0.01971  -0.11289  -0.09131  -0.10504
  27        3PY        -0.08691  -0.02519   0.06331  -0.16677   0.06114
  28        3PZ         0.00034   0.00984   0.00008   0.00564   0.00188
  29        4S         -0.08157  -1.34987   0.01878   3.40779   0.21567
  30        4PX         0.53834  -0.12481  -1.12986  -1.26986  -0.65768
  31        4PY        -0.33810  -0.19372   0.65369  -2.24297  -0.08242
  32        4PZ         0.00161   0.04625  -0.00047   0.03839   0.00608
  33 5   H  1S          0.03112   0.02436   0.00762   0.01515  -0.07417
  34        2S          0.06980   0.02097  -0.03140   0.12759  -0.69994
  35        3S          1.09848   0.93497  -1.53413   0.46677   0.45928
  36 6   H  1S         -0.03089   0.02566  -0.00599   0.00922   0.09053
  37        2S         -0.07013   0.02025   0.03341   0.07260   0.94949
  38        3S         -0.98881   0.96476   1.51038   0.47769  -0.41603
                          16        17        18        19        20
                           V         V         V         V         V
     Eigenvalues --     0.39700   0.46455   0.48802   0.49381   0.59107
   1 1   C  1S         -0.01674   0.01068  -0.04750   0.00061  -0.00064
   2        2S         -0.02985   0.02596  -0.07988   0.00132  -0.00116
   3        2PX         0.02066  -0.06085   0.01558   0.00104   0.00232
   4        2PY         0.04331  -0.10567   0.02030   0.00155   0.00350
   5        2PZ        -0.00013  -0.00062   0.00231  -0.15197  -0.19248
   6        3S          0.07807  -0.33344   0.11148  -0.01189   0.00006
   7        3PX         0.08534  -0.24331  -0.01933   0.00123   0.00778
   8        3PY         0.18511  -0.41953  -0.04608   0.00129   0.01189
   9        3PZ        -0.00504  -0.00484   0.01183  -0.62888  -0.68457
  10        4S          2.29412   0.18142   3.15448   0.03094   0.07320
  11        4PX         0.01853   0.23991   0.79150   0.01315   0.02336
  12        4PY         0.17450   0.45644   1.38058   0.02461   0.03966
  13        4PZ        -0.00286  -0.00067  -0.07940   0.68725   1.24014
  14 2   H  1S         -0.02245  -0.03750  -0.07568  -0.00122  -0.00181
  15        2S         -0.50000  -0.35867  -0.90693  -0.00784  -0.01295
  16        3S          0.22865   0.09781   0.64630   0.01836   0.02515
  17 3   H  1S         -0.04368  -0.04023  -0.07323  -0.00120  -0.00170
  18        2S         -0.70985  -0.39195  -0.87983  -0.00800  -0.01092
  19        3S          0.29302   0.09566   0.60399   0.01805   0.02430
  20 4   C  1S         -0.00324  -0.00073   0.05074   0.00221   0.00071
  21        2S         -0.00884   0.00655   0.08783   0.00408   0.00132
  22        2PX         0.00233   0.05584   0.02470  -0.00058   0.00214
  23        2PY         0.01212   0.09662   0.04670  -0.00102   0.00410
  24        2PZ        -0.00373  -0.00167   0.00245  -0.15263   0.19229
  25        3S          0.08157  -0.29563  -0.21437  -0.01813  -0.00198
  26        3PX        -0.06081   0.23713   0.04258  -0.00135   0.00756
  27        3PY        -0.07187   0.41442   0.07936  -0.00258   0.01415
  28        3PZ        -0.01112  -0.00707   0.00766  -0.63118   0.68272
  29        4S         -0.45301   0.69693  -3.13088  -0.05380  -0.06704
  30        4PX         1.03953  -0.35428   0.65815   0.00323   0.02265
  31        4PY         1.99392  -0.58067   1.11919   0.00452   0.04008
  32        4PZ        -0.03271  -0.01675   0.05490   0.69300  -1.23797
  33 5   H  1S         -0.05675  -0.06080   0.06553   0.00118   0.00171
  34        2S         -0.91848  -0.61751   0.81812   0.02123   0.00720
  35        3S         -0.09119   0.24720  -0.55984   0.00158  -0.02472
  36 6   H  1S         -0.03417  -0.05891   0.06648   0.00124   0.00178
  37        2S         -0.67898  -0.59173   0.82189   0.02113   0.00836
  38        3S         -0.18483   0.26178  -0.58874   0.00059  -0.02506
                          21        22        23        24        25
                           V         V         V         V         V
     Eigenvalues --     0.66558   0.69089   0.77315   0.77544   0.84159
   1 1   C  1S          0.00100  -0.00058   0.05655   0.06907   0.00100
   2        2S          0.00205  -0.00132   0.11948   0.14734   0.00229
   3        2PX        -0.13348   0.19634  -0.01766   0.11681  -0.00771
   4        2PY         0.07817  -0.11885  -0.03123   0.18817   0.01421
   5        2PZ        -0.00004   0.00015   0.00100   0.00517   0.00021
   6        3S         -0.01623   0.01831  -0.82827  -1.28885  -0.02431
   7        3PX        -0.62024   0.68562  -0.14436   0.46186  -0.22041
   8        3PY         0.35896  -0.41509  -0.25258   0.73427   0.16686
   9        3PZ        -0.00028   0.00063   0.00363   0.01814   0.00088
  10        4S          0.02662  -0.08939   0.90937   2.41547  -0.03966
  11        4PX         1.11455  -0.77036   0.12537  -0.78790   4.45130
  12        4PY        -0.64670   0.47132   0.14630  -1.01292  -2.56316
  13        4PZ         0.00018   0.00161   0.00618  -0.05928   0.00245
  14 2   H  1S          0.02344  -0.05866   0.01297   0.03140  -0.02566
  15        2S          0.12652  -0.61973   0.07495   0.08728  -1.53628
  16        3S         -1.04664   1.09995  -0.16991  -1.07699  -1.21108
  17 3   H  1S         -0.02265   0.05809   0.01293   0.03237   0.02920
  18        2S         -0.14190   0.66094   0.10338   0.05068   1.58215
  19        3S          1.03676  -1.06013  -0.16309  -1.24655   1.20958
  20 4   C  1S          0.00121  -0.00055   0.08612   0.02484   0.00074
  21        2S          0.00246  -0.00103   0.18328   0.05208   0.00148
  22        2PX        -0.15052  -0.18685  -0.09188   0.05858   0.01267
  23        2PY         0.08610   0.10312  -0.16677   0.10868   0.00110
  24        2PZ        -0.00000  -0.00017   0.00540  -0.00146  -0.00022
  25        3S         -0.01773  -0.00027  -1.51755  -0.26230  -0.00672
  26        3PX        -0.67916  -0.63358  -0.32763   0.29914   0.24634
  27        3PY         0.39166   0.34673  -0.60114   0.55226  -0.10115
  28        3PZ        -0.00012  -0.00059   0.01902  -0.00539  -0.00079
  29        4S          0.01508   0.05689   2.66690  -0.08440   0.02558
  30        4PX         1.25717   0.73222   0.48701  -0.25361  -4.23147
  31        4PY        -0.71837  -0.40170   0.97096  -0.73831   2.39975
  32        4PZ         0.00013  -0.00132  -0.05469   0.03110  -0.00160
  33 5   H  1S         -0.02541  -0.05560   0.03469  -0.00003  -0.02397
  34        2S         -0.15227  -0.58389   0.08232   0.07738  -1.44239
  35        3S          1.11095   0.98264  -1.14976   0.38387  -1.11732
  36 6   H  1S          0.02618   0.05533   0.03425   0.00079   0.02347
  37        2S          0.14484   0.54671   0.08244   0.01220   1.42274
  38        3S         -1.11617  -1.00165  -1.07091   0.28926   1.12675
                          26        27        28        29        30
                           V         V         V         V         V
     Eigenvalues --     0.95214   2.23188   2.29004   2.33251   2.40628
   1 1   C  1S          0.09553  -0.01028  -0.01417   0.00046  -0.00055
   2        2S          0.19848   0.00114  -0.01423   0.00101  -0.00065
   3        2PX        -0.09133  -0.08661  -0.13101   0.33865  -0.40999
   4        2PY        -0.15836  -0.16104  -0.22906  -0.19285   0.23313
   5        2PZ         0.00002  -0.01428  -0.01927  -0.00009  -0.00066
   6        3S         -1.53771  -0.18279  -0.03311  -0.00195  -0.00494
   7        3PX        -0.23379   0.08675   0.20668  -0.40703   0.57162
   8        3PY        -0.39628   0.17663   0.37700   0.23480  -0.32762
   9        3PZ        -0.00303   0.01436   0.02420   0.00023   0.00072
  10        4S          5.71667  -0.11857  -0.89061   0.00264  -0.02636
  11        4PX         1.20698   0.05236  -0.18626  -0.02371   0.96020
  12        4PY         1.97988   0.06111  -0.35560   0.00433  -0.53140
  13        4PZ        -0.01806   0.00335   0.00838  -0.00033   0.00146
  14 2   H  1S          0.01583  -0.72209  -0.77884  -0.70473   0.65702
  15        2S         -0.29741   1.02896   1.16929   1.07449  -1.45406
  16        3S         -0.09313  -0.31378  -0.46881  -0.47551   0.38012
  17 3   H  1S          0.01609  -0.71531  -0.77472   0.69543  -0.67983
  18        2S         -0.26170   1.02202   1.16797  -1.06536   1.50328
  19        3S         -0.07310  -0.28974  -0.44866   0.46324  -0.37030
  20 4   C  1S         -0.09424  -0.01038   0.01254   0.00049   0.00034
  21        2S         -0.19553   0.00029   0.01256   0.00074   0.00057
  22        2PX        -0.09230   0.12713  -0.12651   0.31135   0.41467
  23        2PY        -0.15918   0.22058  -0.21195  -0.18035  -0.23796
  24        2PZ         0.00016  -0.01612   0.01938   0.00018   0.00023
  25        3S          1.51243  -0.17092   0.02087  -0.00010   0.00054
  26        3PX        -0.22651  -0.15990   0.21656  -0.38697  -0.58091
  27        3PY        -0.39777  -0.27164   0.35438   0.22140   0.33297
  28        3PZ         0.00356   0.01719  -0.02460  -0.00014  -0.00030
  29        4S         -5.70021  -0.16074   0.89035   0.01515   0.01063
  30        4PX         1.10169  -0.01655  -0.20324   0.08567  -0.87012
  31        4PY         1.99941  -0.03942  -0.32355  -0.04769   0.51033
  32        4PZ         0.01587   0.00503  -0.00742  -0.00020  -0.00118
  33 5   H  1S         -0.01767  -0.77836   0.69160   0.70717   0.68232
  34        2S          0.28294   1.12742  -1.05416  -1.03717  -1.46184
  35        3S          0.06186  -0.34573   0.40847   0.50430   0.41556
  36 6   H  1S         -0.01757  -0.77093   0.71457  -0.69544  -0.67771
  37        2S          0.31273   1.11421  -1.08305   1.01628   1.44567
  38        3S          0.07428  -0.34817   0.43758  -0.50218  -0.42376
                          31        32        33        34        35
                           V         V         V         V         V
     Eigenvalues --     2.67125   2.81742   2.87878   2.95192   3.14000
   1 1   C  1S          0.00052   0.00271  -0.01328   0.00013  -0.00933
   2        2S          0.00038   0.00795  -0.04452  -0.00002  -0.02865
   3        2PX         0.00545   0.07724  -0.45966  -0.74030   0.45889
   4        2PY         0.00899   0.13598  -0.83046   0.41612   0.80081
   5        2PZ        -0.92419  -0.92821  -0.15027  -0.00115   0.00806
   6        3S         -0.00136  -0.06632   0.39265   0.00261   0.24145
   7        3PX        -0.00386  -0.13522   0.82427   0.89140  -0.45188
   8        3PY        -0.00654  -0.23576   1.45984  -0.48720  -0.78550
   9        3PZ         0.93934   1.13440   0.18901   0.00165  -0.01015
  10        4S          0.01327   0.15193  -0.87363  -0.00893  -0.46854
  11        4PX        -0.00237   0.10953  -0.71047  -0.67400   0.23664
  12        4PY        -0.00290   0.19165  -1.26225   0.35807   0.40879
  13        4PZ        -0.33811  -0.61360  -0.12014  -0.00137   0.00642
  14 2   H  1S          0.01291  -0.02330   0.26965  -0.38333  -0.22007
  15        2S         -0.01488   0.01594  -0.23085   0.39547   0.16747
  16        3S         -0.00280   0.04336  -0.29381   0.26683   0.06749
  17 3   H  1S          0.01305  -0.02243   0.25775   0.38398  -0.22107
  18        2S         -0.01524   0.01386  -0.20893  -0.39129   0.16696
  19        3S         -0.00354   0.04454  -0.29905  -0.28613   0.07620
  20 4   C  1S          0.00058  -0.00269   0.01350   0.00058  -0.00769
  21        2S          0.00058  -0.00824   0.04720   0.00132  -0.02395
  22        2PX        -0.00814   0.07178  -0.41828  -0.79589  -0.49389
  23        2PY        -0.01416   0.12700  -0.74283   0.44049  -0.87787
  24        2PZ        -0.92516   0.92646   0.15394   0.00089   0.01334
  25        3S         -0.00333   0.07035  -0.42330  -0.00986   0.20523
  26        3PX         0.00857  -0.12921   0.77868   0.94968   0.52047
  27        3PY         0.01462  -0.22766   1.37576  -0.51871   0.93498
  28        3PZ         0.94072  -1.13259  -0.19354  -0.00104  -0.01698
  29        4S          0.01764  -0.15440   0.89400   0.02828  -0.39136
  30        4PX        -0.00097   0.10901  -0.71058  -0.69476  -0.30739
  31        4PY        -0.00204   0.19056  -1.24100   0.37443  -0.56002
  32        4PZ        -0.33887   0.61261   0.12335   0.00066   0.01307
  33 5   H  1S          0.01267   0.02776  -0.28815   0.41194  -0.25768
  34        2S         -0.01547  -0.02148   0.25710  -0.42255   0.20128
  35        3S         -0.00177  -0.04227   0.28781  -0.25071   0.11773
  36 6   H  1S          0.01283   0.02830  -0.28740  -0.42295  -0.24455
  37        2S         -0.01608  -0.02301   0.26389   0.43341   0.19005
  38        3S         -0.00129  -0.03992   0.27079   0.25066   0.10888
                          36        37        38
                           V         V         V
     Eigenvalues --     3.31855  23.35239  23.70592
   1 1   C  1S         -0.00050  -1.41911  -1.44727
   2        2S         -0.00069   1.51348   1.56506
   3        2PX         0.77664  -0.00665   0.01205
   4        2PY        -0.43290  -0.01070   0.02132
   5        2PZ         0.00087  -0.00058  -0.00023
   6        3S          0.00009  -0.29713  -0.39818
   7        3PX        -1.11037   0.02425  -0.05549
   8        3PY         0.61416   0.03978  -0.09692
   9        3PZ        -0.00137   0.00166   0.00067
  10        4S         -0.01348   0.27498   0.76785
  11        4PX         1.94517  -0.02618   0.13281
  12        4PY        -1.07818  -0.04360   0.22911
  13        4PZ         0.00223  -0.00273  -0.00301
  14 2   H  1S          0.54756   0.01280   0.00642
  15        2S         -0.85184   0.00789  -0.01452
  16        3S         -0.45293  -0.08346  -0.03910
  17 3   H  1S         -0.56139   0.01496   0.00798
  18        2S          0.87111   0.00724  -0.01483
  19        3S          0.48149  -0.08615  -0.03959
  20 4   C  1S          0.00018  -1.44248   1.42386
  21        2S         -0.00005   1.53847  -1.53982
  22        2PX        -0.72042   0.00600   0.01266
  23        2PY         0.41293   0.01092   0.02143
  24        2PZ        -0.00061  -0.00060   0.00018
  25        3S          0.00416  -0.30201   0.39188
  26        3PX         1.02449  -0.02218  -0.05657
  27        3PY        -0.59675  -0.03983  -0.09696
  28        3PZ         0.00097   0.00173  -0.00050
  29        4S         -0.01109   0.27903  -0.76168
  30        4PX        -1.79926   0.02329   0.13141
  31        4PY         1.05559   0.04309   0.22734
  32        4PZ        -0.00165  -0.00286   0.00269
  33 5   H  1S          0.49859   0.01364  -0.00532
  34        2S         -0.77601   0.00779   0.01392
  35        3S         -0.43718  -0.08371   0.03788
  36 6   H  1S         -0.49220   0.01202  -0.00399
  37        2S          0.76832   0.00907   0.01342
  38        3S          0.42365  -0.08162   0.03713
     Density Matrix:
                           1         2         3         4         5
   1 1   C  1S          0.65941
   2        2S          0.56152   0.49201
   3        2PX        -0.00053  -0.00071   0.08431
   4        2PY        -0.00138  -0.00193   0.00373   0.08757
   5        2PZ         0.00010   0.00015  -0.00013  -0.00029   0.06439
   6        3S         -0.08897  -0.15389   0.00270   0.00674  -0.00024
   7        3PX         0.00090   0.00138   0.13047   0.00137  -0.00009
   8        3PY         0.00115   0.00177   0.00137   0.13111  -0.00025
   9        3PZ         0.00020   0.00033  -0.00023  -0.00047   0.10347
  10        4S         -0.07950  -0.11454  -0.01508  -0.02729   0.00068
  11        4PX         0.00019   0.00146   0.07047  -0.00457  -0.00058
  12        4PY         0.00055   0.00290  -0.00464   0.06576  -0.00104
  13        4PZ        -0.00009  -0.00023  -0.00091  -0.00155   0.09586
  14 2   H  1S         -0.02041  -0.03251   0.03457  -0.06293  -0.00129
  15        2S         -0.02273  -0.03635   0.04925  -0.08786  -0.00099
  16        3S          0.00054  -0.00074   0.02103  -0.03321  -0.00004
  17 3   H  1S         -0.02101  -0.03342  -0.07278  -0.00225  -0.00139
  18        2S         -0.02309  -0.03687  -0.10072  -0.00211  -0.00109
  19        3S          0.00060  -0.00068  -0.03857   0.00138  -0.00006
  20 4   C  1S          0.00607   0.00978  -0.01081  -0.01868  -0.00048
  21        2S          0.00976   0.01524  -0.01729  -0.02989  -0.00078
  22        2PX         0.01041   0.01665  -0.01247  -0.03212   0.00048
  23        2PY         0.01816   0.02905  -0.03220  -0.04971   0.00089
  24        2PZ        -0.00049  -0.00080  -0.00045  -0.00072   0.06431
  25        3S         -0.02629  -0.03990   0.04848   0.08389   0.00236
  26        3PX         0.01609   0.02495  -0.01826  -0.04583   0.00063
  27        3PY         0.02804   0.04349  -0.04581  -0.07118   0.00118
  28        3PZ        -0.00084  -0.00135  -0.00077  -0.00125   0.10300
  29        4S          0.00535   0.00398   0.02047   0.03578   0.00268
  30        4PX         0.00313   0.00644  -0.01307  -0.02096   0.00077
  31        4PY         0.00527   0.01095  -0.02101  -0.03730   0.00145
  32        4PZ        -0.00072  -0.00116  -0.00115  -0.00192   0.09592
  33 5   H  1S          0.00422   0.00694  -0.00173  -0.01222  -0.00055
  34        2S          0.00639   0.01062   0.00342  -0.02485  -0.00004
  35        3S          0.00331   0.00485   0.00415  -0.01751   0.00008
  36 6   H  1S          0.00415   0.00682  -0.00976  -0.00761  -0.00056
  37        2S          0.00626   0.01044  -0.02328  -0.00945  -0.00006
  38        3S          0.00325   0.00477  -0.01725  -0.00521   0.00006
                           6         7         8         9        10
   6        3S          0.45271
   7        3PX        -0.00187   0.20221
   8        3PY        -0.00123  -0.00433   0.19684
   9        3PZ        -0.00068  -0.00018  -0.00039   0.16628
  10        4S          0.27414  -0.02561  -0.04723   0.00090   0.18289
  11        4PX        -0.00644   0.10957  -0.01030  -0.00095  -0.01453
  12        4PY        -0.01202  -0.01039   0.09918  -0.00166  -0.02845
  13        4PZ         0.00107  -0.00121  -0.00203   0.15405   0.00233
  14 2   H  1S          0.08689   0.05569  -0.09843  -0.00214   0.06904
  15        2S          0.09726   0.07969  -0.13694  -0.00168   0.08145
  16        3S          0.00609   0.03434  -0.05115  -0.00007   0.01121
  17 3   H  1S          0.08942  -0.11394  -0.00194  -0.00227   0.06888
  18        2S          0.09877  -0.15750  -0.00047  -0.00180   0.07960
  19        3S          0.00612  -0.06008   0.00398  -0.00009   0.00992
  20 4   C  1S         -0.02649  -0.01683  -0.02912  -0.00082   0.00519
  21        2S         -0.04010  -0.02614  -0.04527  -0.00132   0.00390
  22        2PX        -0.04662  -0.01779  -0.04557   0.00084  -0.01812
  23        2PY        -0.08135  -0.04570  -0.07094   0.00154  -0.03155
  24        2PZ         0.00239  -0.00060  -0.00096   0.10334   0.00268
  25        3S          0.10221   0.07094   0.12302   0.00394   0.00107
  26        3PX        -0.06756  -0.02620  -0.06482   0.00110  -0.02704
  27        3PY        -0.11778  -0.06485  -0.10153   0.00204  -0.04700
  28        3PZ         0.00397  -0.00106  -0.00169   0.16551   0.00444
  29        4S          0.00166   0.03085   0.05418   0.00446  -0.03249
  30        4PX        -0.02276  -0.01954  -0.02943   0.00128  -0.00696
  31        4PY        -0.03896  -0.02957  -0.05394   0.00240  -0.01123
  32        4PZ         0.00338  -0.00161  -0.00266   0.15414   0.00410
  33 5   H  1S         -0.02066  -0.00073  -0.01766  -0.00080  -0.01527
  34        2S         -0.03176   0.00840  -0.03672   0.00003  -0.01994
  35        3S         -0.01249   0.00795  -0.02638   0.00015  -0.00375
  36 6   H  1S         -0.02030  -0.01481  -0.00927  -0.00081  -0.01543
  37        2S         -0.03122  -0.03577  -0.01071   0.00001  -0.02058
  38        3S         -0.01228  -0.02667  -0.00620   0.00012  -0.00425
                          11        12        13        14        15
  11        4PX         0.06041
  12        4PY        -0.00925   0.05152
  13        4PZ        -0.00142  -0.00242   0.14275
  14 2   H  1S          0.03360  -0.05434  -0.00111   0.08092
  15        2S          0.04880  -0.07549  -0.00044   0.10952   0.15035
  16        3S          0.02140  -0.02808   0.00022   0.03700   0.05308
  17 3   H  1S         -0.06321   0.00172  -0.00115  -0.01307  -0.02496
  18        2S         -0.08778   0.00445  -0.00045  -0.02485  -0.04360
  19        3S         -0.03381   0.00466   0.00024  -0.01823  -0.02784
  20 4   C  1S         -0.00311  -0.00568  -0.00072   0.00421   0.00663
  21        2S         -0.00646  -0.01163  -0.00116   0.00695   0.01108
  22        2PX        -0.01311  -0.02011   0.00120   0.00181  -0.00282
  23        2PY        -0.02022  -0.03686   0.00215   0.01156   0.02435
  24        2PZ        -0.00079  -0.00132   0.09575  -0.00058  -0.00017
  25        3S          0.02293   0.04095   0.00340  -0.02089  -0.03330
  26        3PX        -0.02011  -0.02846   0.00164   0.00097  -0.00742
  27        3PY        -0.02859  -0.05359   0.00295   0.01707   0.03632
  28        3PZ        -0.00130  -0.00218   0.15336  -0.00085  -0.00016
  29        4S          0.00770   0.01476   0.00408  -0.01743  -0.02382
  30        4PX        -0.01462  -0.01252   0.00155  -0.00164  -0.00844
  31        4PY        -0.01263  -0.02950   0.00285   0.01529   0.02718
  32        4PZ        -0.00158  -0.00267   0.14284  -0.00047   0.00032
  33 5   H  1S          0.00178  -0.01570  -0.00042   0.01120   0.02345
  34        2S          0.00886  -0.02745   0.00048   0.02371   0.04450
  35        3S          0.00737  -0.01583   0.00033   0.01656   0.02782
  36 6   H  1S         -0.01440  -0.00585  -0.00042  -0.00910  -0.01833
  37        2S         -0.02802  -0.00534   0.00048  -0.01880  -0.03447
  38        3S         -0.01718  -0.00126   0.00032  -0.01013  -0.01778
                          16        17        18        19        20
  16        3S          0.02140
  17 3   H  1S         -0.01848   0.08243
  18        2S         -0.02800   0.10993   0.14879
  19        3S         -0.01322   0.03632   0.05148   0.02045
  20 4   C  1S          0.00363   0.00430   0.00669   0.00364   0.65946
  21        2S          0.00535   0.00709   0.01115   0.00535   0.56156
  22        2PX        -0.00359   0.00913   0.02239   0.01675   0.00115
  23        2PY         0.01768   0.00746   0.00966   0.00556   0.00170
  24        2PZ         0.00005  -0.00058  -0.00012   0.00009   0.00008
  25        3S         -0.01388  -0.02125  -0.03341  -0.01376  -0.08921
  26        3PX        -0.00715   0.01442   0.03515   0.02615  -0.00048
  27        3PY         0.02659   0.00954   0.01170   0.00694  -0.00112
  28        3PZ         0.00011  -0.00084  -0.00009   0.00016   0.00019
  29        4S         -0.00566  -0.01721  -0.02298  -0.00512  -0.08007
  30        4PX        -0.00703   0.01401   0.02755   0.01703  -0.00023
  31        4PY         0.01591   0.00657   0.00659   0.00190  -0.00023
  32        4PZ         0.00031  -0.00047   0.00036   0.00035  -0.00008
  33 5   H  1S          0.01633  -0.00906  -0.01823  -0.00952  -0.02029
  34        2S          0.02758  -0.01863  -0.03398  -0.01702  -0.02231
  35        3S          0.01468  -0.01002  -0.01747  -0.00895   0.00061
  36 6   H  1S         -0.00966   0.01120   0.02328   0.01597  -0.01994
  37        2S         -0.01743   0.02377   0.04428   0.02711  -0.02224
  38        3S         -0.00920   0.01661   0.02769   0.01446   0.00049
                          21        22        23        24        25
  21        2S          0.49205
  22        2PX         0.00165   0.08274
  23        2PY         0.00241   0.00362   0.08779
  24        2PZ         0.00013   0.00015   0.00022   0.06427
  25        3S         -0.15418  -0.00534  -0.00797  -0.00014   0.45354
  26        3PX        -0.00072   0.12870   0.00173   0.00010  -0.00024
  27        3PY        -0.00171   0.00179   0.13148   0.00010   0.00099
  28        3PZ         0.00031   0.00023   0.00035   0.10293  -0.00060
  29        4S         -0.11564   0.01421   0.02384   0.00065   0.27789
  30        4PX        -0.00153   0.07270  -0.00496   0.00055   0.00642
  31        4PY        -0.00230  -0.00488   0.06674   0.00099   0.01015
  32        4PZ        -0.00021   0.00086   0.00153   0.09584   0.00105
  33 5   H  1S         -0.03230  -0.03366   0.06373  -0.00142   0.08639
  34        2S         -0.03564  -0.04960   0.08851  -0.00110   0.09539
  35        3S         -0.00060  -0.02226   0.03337  -0.00010   0.00569
  36 6   H  1S         -0.03179   0.07119   0.00257  -0.00134   0.08500
  37        2S         -0.03556   0.10114   0.00100  -0.00099   0.09511
  38        3S         -0.00076   0.04032  -0.00282  -0.00007   0.00597
                          26        27        28        29        30
  26        3PX         0.20052
  27        3PY        -0.00287   0.19743
  28        3PZ         0.00012   0.00015   0.16486
  29        4S          0.02592   0.04311   0.00079   0.18620
  30        4PX         0.11370  -0.01041   0.00086   0.01604   0.06552
  31        4PY        -0.01038   0.10072   0.00158   0.02530  -0.00995
  32        4PZ         0.00110   0.00196   0.15351   0.00219   0.00131
  33 5   H  1S         -0.05386   0.09965  -0.00233   0.06734  -0.03420
  34        2S         -0.07982   0.13789  -0.00183   0.07758  -0.05121
  35        3S         -0.03627   0.05135  -0.00017   0.00931  -0.02353
  36 6   H  1S          0.11244   0.00316  -0.00223   0.06773   0.06533
  37        2S          0.15954  -0.00029  -0.00169   0.07942   0.09310
  38        3S          0.06328  -0.00590  -0.00012   0.01041   0.03722
                          31        32        33        34        35
  31        4PY         0.05289
  32        4PZ         0.00242   0.14296
  33 5   H  1S          0.05533  -0.00121   0.08118
  34        2S          0.07665  -0.00048   0.11009   0.15169
  35        3S          0.02864   0.00017   0.03777   0.05457   0.02242
  36 6   H  1S         -0.00186  -0.00118  -0.01255  -0.02585  -0.01963
  37        2S         -0.00589  -0.00043  -0.02597  -0.04761  -0.03098
  38        3S         -0.00599   0.00018  -0.01987  -0.03113  -0.01523
                          36        37        38
  36 6   H  1S          0.08008
  37        2S          0.10964   0.15245
  38        3S          0.03805   0.05538   0.02289
    Full Mulliken population analysis:
                           1         2         3         4         5
   1 1   C  1S          0.65941
   2        2S          0.49326   0.49201
   3        2PX         0.00000   0.00000   0.08431
   4        2PY         0.00000   0.00000   0.00000   0.08757
   5        2PZ         0.00000   0.00000   0.00000   0.00000   0.06439
   6        3S         -0.02929  -0.06445   0.00000   0.00000   0.00000
   7        3PX         0.00000   0.00000   0.08208   0.00000   0.00000
   8        3PY         0.00000   0.00000   0.00000   0.08249   0.00000
   9        3PZ         0.00000   0.00000   0.00000   0.00000   0.06510
  10        4S         -0.01222  -0.02144   0.00000   0.00000   0.00000
  11        4PX         0.00000   0.00000   0.01552   0.00000   0.00000
  12        4PY         0.00000   0.00000   0.00000   0.01448   0.00000
  13        4PZ         0.00000   0.00000   0.00000   0.00000   0.02111
  14 2   H  1S         -0.00022  -0.00032   0.00174   0.00554   0.00000
  15        2S         -0.00164  -0.00314   0.00424   0.01320   0.00001
  16        3S          0.00004  -0.00007   0.00070   0.00192   0.00000
  17 3   H  1S         -0.00025  -0.00036   0.00787   0.00000   0.00000
  18        2S         -0.00173  -0.00330   0.01776   0.00000   0.00001
  19        3S          0.00005  -0.00006   0.00257  -0.00000   0.00000
  20 4   C  1S          0.00000   0.00000  -0.00002  -0.00006   0.00000
  21        2S          0.00000  -0.00000  -0.00002  -0.00005   0.00000
  22        2PX        -0.00002  -0.00002   0.00011   0.00085   0.00000
  23        2PY        -0.00006  -0.00005   0.00086   0.00196   0.00000
  24        2PZ        -0.00000  -0.00000  -0.00000  -0.00000   0.00042
  25        3S         -0.00059  -0.00099   0.00253   0.00758  -0.00000
  26        3PX        -0.00054  -0.00100   0.00019   0.00554   0.00000
  27        3PY        -0.00164  -0.00301   0.00554   0.01068   0.00000
  28        3PZ        -0.00000  -0.00000  -0.00000  -0.00000   0.00611
  29        4S          0.00034   0.00030   0.00093   0.00281  -0.00000
  30        4PX        -0.00018  -0.00046  -0.00071   0.00145   0.00000
  31        4PY        -0.00053  -0.00135   0.00146   0.00097   0.00000
  32        4PZ        -0.00000  -0.00000  -0.00000  -0.00000   0.00902
  33 5   H  1S          0.00000   0.00000  -0.00000  -0.00000   0.00000
  34        2S          0.00001   0.00002   0.00000  -0.00032   0.00000
  35        3S          0.00008   0.00014   0.00001  -0.00071  -0.00000
  36 6   H  1S          0.00000   0.00000  -0.00000  -0.00000   0.00000
  37        2S          0.00001   0.00002  -0.00024  -0.00007   0.00000
  38        3S          0.00008   0.00013  -0.00057  -0.00012  -0.00000
                           6         7         8         9        10
   6        3S          0.45271
   7        3PX         0.00000   0.20221
   8        3PY         0.00000   0.00000   0.19684
   9        3PZ         0.00000   0.00000   0.00000   0.16628
  10        4S          0.21238   0.00000   0.00000   0.00000   0.18289
  11        4PX         0.00000   0.07160   0.00000   0.00000   0.00000
  12        4PY         0.00000   0.00000   0.06481   0.00000   0.00000
  13        4PZ         0.00000   0.00000   0.00000   0.10067   0.00000
  14 2   H  1S          0.01577   0.01047   0.03228   0.00002   0.01818
  15        2S          0.04067   0.01929   0.05786   0.00002   0.04679
  16        3S          0.00280   0.00398   0.01034   0.00000   0.00844
  17 3   H  1S          0.01691   0.04424   0.00001   0.00003   0.01842
  18        2S          0.04225   0.07739   0.00000   0.00003   0.04627
  19        3S          0.00284   0.01394  -0.00001   0.00000   0.00752
  20 4   C  1S         -0.00059  -0.00057  -0.00171   0.00000   0.00033
  21        2S         -0.00100  -0.00105  -0.00314   0.00000   0.00030
  22        2PX         0.00243   0.00019   0.00551   0.00000   0.00082
  23        2PY         0.00735   0.00553   0.01064   0.00000   0.00248
  24        2PZ         0.00000  -0.00000  -0.00000   0.00613   0.00000
  25        3S          0.02178   0.01330   0.03992  -0.00000   0.00040
  26        3PX         0.01266  -0.00127   0.01850   0.00000   0.00417
  27        3PY         0.03822   0.01851   0.02853   0.00000   0.01255
  28        3PZ         0.00000  -0.00000  -0.00000   0.03528   0.00000
  29        4S          0.00063   0.00476   0.01446  -0.00000  -0.02040
  30        4PX         0.00639  -0.00401   0.00583   0.00000   0.00211
  31        4PY         0.01895   0.00585   0.00126   0.00000   0.00589
  32        4PZ         0.00000  -0.00000  -0.00000   0.04925   0.00000
  33 5   H  1S         -0.00006  -0.00000  -0.00020   0.00000  -0.00083
  34        2S         -0.00126   0.00006  -0.00329  -0.00000  -0.00339
  35        3S         -0.00206   0.00010  -0.00428  -0.00000  -0.00136
  36 6   H  1S         -0.00005  -0.00013  -0.00006   0.00000  -0.00082
  37        2S         -0.00120  -0.00258  -0.00053  -0.00000  -0.00344
  38        3S         -0.00199  -0.00355  -0.00057  -0.00000  -0.00153
                          11        12        13        14        15
  11        4PX         0.06041
  12        4PY         0.00000   0.05152
  13        4PZ         0.00000   0.00000   0.14275
  14 2   H  1S          0.00625   0.01763   0.00001   0.08092
  15        2S          0.01529   0.04128   0.00001   0.07736   0.15035
  16        3S          0.00526   0.01205  -0.00000   0.01383   0.04188
  17 3   H  1S          0.02368  -0.00001   0.00001  -0.00001  -0.00067
  18        2S          0.05521  -0.00004   0.00001  -0.00067  -0.00553
  19        3S          0.01661  -0.00003  -0.00000  -0.00205  -0.00816
  20 4   C  1S         -0.00018  -0.00057   0.00000   0.00000   0.00002
  21        2S         -0.00046  -0.00143   0.00000   0.00000   0.00003
  22        2PX        -0.00071   0.00139   0.00000  -0.00000   0.00000
  23        2PY         0.00140   0.00096   0.00000  -0.00000  -0.00035
  24        2PZ        -0.00000  -0.00000   0.00901   0.00000   0.00000
  25        3S          0.00644   0.01992  -0.00000  -0.00007  -0.00143
  26        3PX        -0.00412   0.00564   0.00000  -0.00000   0.00004
  27        3PY         0.00566   0.00125   0.00000  -0.00022  -0.00350
  28        3PZ        -0.00000  -0.00000   0.04900   0.00000   0.00000
  29        4S          0.00233   0.00774  -0.00000  -0.00100  -0.00422
  30        4PX        -0.00704   0.00317   0.00000   0.00001   0.00018
  31        4PY         0.00320  -0.00559   0.00000  -0.00240  -0.01015
  32        4PZ        -0.00000  -0.00000   0.08968   0.00000  -0.00000
  33 5   H  1S          0.00002  -0.00236   0.00000   0.00000   0.00000
  34        2S          0.00025  -0.00994  -0.00000   0.00000   0.00016
  35        3S          0.00027  -0.00734  -0.00000   0.00023   0.00146
  36 6   H  1S         -0.00176  -0.00049   0.00000  -0.00000  -0.00004
  37        2S         -0.00830  -0.00108  -0.00000  -0.00004  -0.00091
  38        3S         -0.00656  -0.00033  -0.00000  -0.00046  -0.00246
                          16        17        18        19        20
  16        3S          0.02140
  17 3   H  1S         -0.00207   0.08243
  18        2S         -0.00821   0.07765   0.14879
  19        3S         -0.00689   0.01357   0.04061   0.02045
  20 4   C  1S          0.00009   0.00000   0.00002   0.00009   0.65946
  21        2S          0.00016   0.00000   0.00003   0.00016   0.49330
  22        2PX         0.00001  -0.00000  -0.00027  -0.00058   0.00000
  23        2PY        -0.00074  -0.00000  -0.00008  -0.00013   0.00000
  24        2PZ        -0.00000   0.00000   0.00000  -0.00000   0.00000
  25        3S         -0.00237  -0.00007  -0.00146  -0.00237  -0.02936
  26        3PX         0.00007  -0.00016  -0.00286  -0.00364   0.00000
  27        3PY        -0.00442  -0.00007  -0.00064  -0.00065   0.00000
  28        3PZ        -0.00000   0.00000   0.00000  -0.00000   0.00000
  29        4S         -0.00211  -0.00100  -0.00411  -0.00192  -0.01231
  30        4PX         0.00019  -0.00185  -0.00863  -0.00668   0.00000
  31        4PY        -0.00748  -0.00058  -0.00138  -0.00050   0.00000
  32        4PZ        -0.00000   0.00000  -0.00000  -0.00000   0.00000
  33 5   H  1S          0.00023  -0.00000  -0.00004  -0.00043  -0.00022
  34        2S          0.00145  -0.00004  -0.00092  -0.00238  -0.00161
  35        3S          0.00247  -0.00046  -0.00244  -0.00287   0.00005
  36 6   H  1S         -0.00044   0.00000   0.00000   0.00022  -0.00020
  37        2S         -0.00241   0.00000   0.00015   0.00142  -0.00157
  38        3S         -0.00293   0.00023   0.00145   0.00243   0.00004
                          21        22        23        24        25
  21        2S          0.49205
  22        2PX         0.00000   0.08274
  23        2PY         0.00000   0.00000   0.08779
  24        2PZ         0.00000   0.00000   0.00000   0.06427
  25        3S         -0.06457   0.00000   0.00000   0.00000   0.45354
  26        3PX         0.00000   0.08097   0.00000   0.00000   0.00000
  27        3PY         0.00000   0.00000   0.08272   0.00000   0.00000
  28        3PZ         0.00000   0.00000   0.00000   0.06476   0.00000
  29        4S         -0.02164   0.00000   0.00000   0.00000   0.21528
  30        4PX         0.00000   0.01601   0.00000   0.00000   0.00000
  31        4PY         0.00000   0.00000   0.01470   0.00000   0.00000
  32        4PZ         0.00000   0.00000   0.00000   0.02111   0.00000
  33 5   H  1S         -0.00032   0.00156   0.00576   0.00000   0.01570
  34        2S         -0.00308   0.00391   0.01366   0.00001   0.03992
  35        3S         -0.00006   0.00068   0.00198   0.00000   0.00261
  36 6   H  1S         -0.00029   0.00688   0.00001   0.00000   0.01499
  37        2S         -0.00300   0.01727   0.00001   0.00001   0.03914
  38        3S         -0.00007   0.00269  -0.00001   0.00000   0.00272
                          26        27        28        29        30
  26        3PX         0.20052
  27        3PY         0.00000   0.19743
  28        3PZ         0.00000   0.00000   0.16486
  29        4S          0.00000   0.00000   0.00000   0.18620
  30        4PX         0.07430   0.00000   0.00000   0.00000   0.06552
  31        4PY         0.00000   0.06581   0.00000   0.00000   0.00000
  32        4PZ         0.00000   0.00000   0.10031   0.00000   0.00000
  33 5   H  1S          0.00927   0.03356   0.00003   0.01774   0.00582
  34        2S          0.01769   0.05981   0.00003   0.04458   0.01469
  35        3S          0.00384   0.01065   0.00000   0.00701   0.00529
  36 6   H  1S          0.04162   0.00006   0.00003   0.01765   0.02437
  37        2S          0.07706  -0.00001   0.00003   0.04525   0.05866
  38        3S          0.01475  -0.00007   0.00000   0.00780   0.01846
                          31        32        33        34        35
  31        4PY         0.05289
  32        4PZ         0.00000   0.14296
  33 5   H  1S          0.01843   0.00001   0.08118
  34        2S          0.04301   0.00001   0.07776   0.15169
  35        3S          0.01261  -0.00000   0.01411   0.04306   0.02242
  36 6   H  1S         -0.00004   0.00001  -0.00001  -0.00077  -0.00229
  37        2S         -0.00020   0.00001  -0.00077  -0.00644  -0.00936
  38        3S         -0.00016  -0.00000  -0.00232  -0.00941  -0.00810
                          36        37        38
  36 6   H  1S          0.08008
  37        2S          0.07745   0.15245
  38        3S          0.01422   0.04369   0.02289
     Gross orbital populations:
                           1
   1 1   C  1S          1.10436
   2        2S          0.88585
   3        2PX         0.22685
   4        2PY         0.23572
   5        2PZ         0.16616
   6        3S          0.79281
   7        3PX         0.56033
   8        3PY         0.55550
   9        3PZ         0.42280
  10        4S          0.50450
  11        4PX         0.26028
  12        4PY         0.21264
  13        4PZ         0.41224
  14 2   H  1S          0.27281
  15        2S          0.46794
  16        3S          0.08716
  17 3   H  1S          0.27746
  18        2S          0.46533
  19        3S          0.08313
  20 4   C  1S          1.10440
  21        2S          0.88584
  22        2PX         0.22241
  23        2PY         0.23639
  24        2PZ         0.16571
  25        3S          0.79249
  26        3PX         0.55325
  27        3PY         0.55676
  28        3PZ         0.42043
  29        4S          0.50710
  30        4PX         0.27291
  31        4PY         0.21468
  32        4PZ         0.41236
  33 5   H  1S          0.27364
  34        2S          0.46893
  35        3S          0.08776
  36 6   H  1S          0.27021
  37        2S          0.47048
  38        3S          0.09038
          Condensed to atoms (all electrons):
               1          2          3          4          5          6
     1  C    5.035472   0.386697   0.387819   0.602211  -0.036424  -0.035729
     2  H    0.386697   0.518811  -0.034243  -0.039662   0.006002  -0.009699
     3  H    0.387819  -0.034243   0.515350  -0.039335  -0.009578   0.005909
     4  C    0.602211  -0.039662  -0.039335   5.052980   0.384630   0.383914
     5  H   -0.036424   0.006002  -0.009578   0.384630   0.525157  -0.039464
     6  H   -0.035729  -0.009699   0.005909   0.383914  -0.039464   0.526136
 Mulliken charges:
               1
     1  C   -0.340045
     2  H    0.172094
     3  H    0.174078
     4  C   -0.344737
     5  H    0.169677
     6  H    0.168933
 Sum of Mulliken charges =   0.00000
 Mulliken charges with hydrogens summed into heavy atoms:
               1
     1  C    0.006128
     4  C   -0.006128
 Electronic spatial extent (au):  <R**2>=             83.7172
 Charge=              0.0000 electrons
 Dipole moment (field-independent basis, Debye):
    X=             -0.0035    Y=              0.0170    Z=             -0.1151  Tot=              0.1164
 Quadrupole moment (field-independent basis, Debye-Ang):
   XX=            -12.2031   YY=            -12.2193   ZZ=            -15.6685
   XY=              0.0120   XZ=             -0.0022   YZ=             -0.0048
 Traceless Quadrupole moment (field-independent basis, Debye-Ang):
   XX=              1.1605   YY=              1.1443   ZZ=             -2.3049
   XY=              0.0120   XZ=             -0.0022   YZ=             -0.0048
 Octapole moment (field-independent basis, Debye-Ang**2):
  XXX=             -0.2873  YYY=             -0.0422  ZZZ=             -0.0689  XYY=              0.1160
  XXY=             -0.0285  XXZ=             -0.1542  XZZ=             -0.0885  YZZ=             -0.0612
  YYZ=             -0.2027  XYZ=             -0.0425
 Hexadecapole moment (field-independent basis, Debye-Ang**3):
 XXXX=            -34.2730 YYYY=            -55.2093 ZZZZ=            -17.8135 XXXY=             -7.2380
 XXXZ=              0.0083 YYYX=            -10.7119 YYYZ=              0.0108 ZZZX=              0.0181
 ZZZY=              0.0283 XXYY=            -16.1982 XXZZ=             -9.9231 YYZZ=            -13.6421
 XXYZ=              0.0035 YYXZ=             -0.0003 ZZXY=             -3.2009
 N-N= 3.306804776649D+01 E-N=-2.478472976986D+02  KE= 7.815233357439D+01
 Orbital energies and kinetic energies (alpha):
                                 1                 2
   1         O               -10.290040         15.977866
   2         O               -10.288232         15.980499
   3         O                -0.863741          1.538408
   4         O                -0.672235          1.271715
   5         O                -0.559130          0.941531
   6         O                -0.509406          1.283621
   7         O                -0.436792          1.043935
   8         O                -0.356827          1.038592
   9         V                 0.079724          1.182017
  10         V                 0.140966          0.589019
  11         V                 0.164704          0.594496
  12         V                 0.170244          0.679385
  13         V                 0.240898          0.582690
  14         V                 0.375701          0.858561
  15         V                 0.393246          0.931175
  16         V                 0.396997          0.776252
  17         V                 0.464549          1.189753
  18         V                 0.488024          1.426867
  19         V                 0.493809          1.301648
  20         V                 0.591069          1.652810
  21         V                 0.665583          1.571840
  22         V                 0.690894          2.147910
  23         V                 0.773149          2.457087
  24         V                 0.775438          2.285440
  25         V                 0.841589          1.084398
  26         V                 0.952136          3.423916
  27         V                 2.231885          3.923871
  28         V                 2.290044          4.031044
  29         V                 2.332507          4.302526
  30         V                 2.406280          4.517867
  31         V                 2.671247          6.300880
  32         V                 2.817424          6.304741
  33         V                 2.878782          6.137564
  34         V                 2.951915          6.226063
  35         V                 3.140000          6.821906
  36         V                 3.318554          6.402721
  37         V                23.352388         60.074524
  38         V                23.705922         60.203801
 Total kinetic energy from orbitals= 7.815233357439D+01
 Calling FoFJK, ICntrl=      2127 FMM=F ISym2X=0 I1Cent= 0 IOpClX= 0 NMat=1 NMatS=1 NMatT=0.
 -------------------------------------------------------------------
 Center     Atomic                   Forces (Hartrees/Bohr)
 Number     Number              X              Y              Z
 -------------------------------------------------------------------
      1        6           0.013045369    0.004620748   -0.004505915
      2        1          -0.009235178    0.008489887    0.002361958
      3        1           0.002672013   -0.003294020    0.002116937
      4        6           0.008323892    0.005163699   -0.005193753
      5        1           0.002342652   -0.010878814    0.002518453
      6        1          -0.017148747   -0.004101500    0.002702320
 -------------------------------------------------------------------
 Cartesian Forces:  Max     0.017148747 RMS     0.007335466

 GradGradGradGradGradGradGradGradGradGradGradGradGradGradGradGradGradGrad
 Berny optimization.
 Search for a local minimum.
 Step number   1 out of a maximum of    2
 All quantities printed in internal units (Hartrees-Bohrs-Radians)
 Second derivative matrix not updated -- first step.
 The second derivative matrix:
                          X1        Y1        Z1        X2        Y2
           X1           0.75508
           Y1           0.10226   0.85627
           Z1           0.00675   0.01044   0.17170
           X2          -0.16081   0.09356   0.00236   0.13846
           Y2           0.09999  -0.28155  -0.00845  -0.11281   0.27058
           Z2           0.00371  -0.01059  -0.05503  -0.00338   0.00879
           X3          -0.35199  -0.00319  -0.00923  -0.00049  -0.00027
           Y3          -0.00943  -0.10981  -0.00227   0.03244   0.01852
           Z3          -0.01177  -0.00220  -0.05648   0.00171   0.00061
           X4          -0.26715  -0.17827  -0.00111   0.02285   0.01307
           Y4          -0.17876  -0.47303  -0.00188  -0.01320  -0.00755
           Z4           0.00130   0.00233  -0.09405  -0.00069  -0.00095
           X5           0.02346  -0.01355   0.00075  -0.00001   0.00001
           Y5           0.01197  -0.00691   0.00101   0.00001  -0.00000
           Z5          -0.00057   0.00034   0.01726   0.00029  -0.00016
           X6           0.00141  -0.00081   0.00047  -0.00001   0.00001
           Y6          -0.02604   0.01504   0.00113   0.00001  -0.00000
           Z6           0.00057  -0.00032   0.01660  -0.00028   0.00016
                          Z2        X3        Y3        Z3        X4
           Z2           0.02862
           X3          -0.00035   0.35212
           Y3           0.00180   0.00367   0.07588
           Z3           0.01050   0.01007   0.00158   0.02966
           X4           0.00063   0.00038  -0.02669  -0.00063   0.71658
           Y4          -0.00035  -0.00022   0.01541   0.00038   0.11668
           Z4           0.01583  -0.00050  -0.00111   0.01639  -0.00608
           X5          -0.00031  -0.00001   0.00001   0.00031  -0.14978
           Y5           0.00018   0.00001  -0.00000  -0.00019   0.09504
           Z5           0.00924   0.00030  -0.00018  -0.00942  -0.00383
           X6          -0.00030  -0.00001   0.00001   0.00031  -0.32289
           Y6           0.00017   0.00001  -0.00000  -0.00017  -0.01984
           Z6          -0.00916  -0.00029   0.00018   0.00935   0.01101
                          Y4        Z4        X5        Y5        Z5
           Y4           0.86095
           Z4          -0.01153   0.17519
           X5           0.08716  -0.00251   0.12812
           Y5          -0.29106   0.00896  -0.10612   0.28143
           Z5           0.01114  -0.05709   0.00340  -0.00951   0.02976
           X6          -0.01166   0.00848  -0.00179  -0.00090   0.00042
           Y6          -0.10472   0.00230   0.03250   0.01655  -0.00163
           Z6           0.00225  -0.05627  -0.00164  -0.00046   0.01026
                          X6        Y6        Z6
           X6           0.32329
           Y6           0.01337   0.07314
           Z6          -0.00937  -0.00180   0.02923
 ITU=  0
     Eigenvalues ---    0.03722   0.04380   0.09163   0.10109   0.13509
     Eigenvalues ---    0.17474   0.26336   0.28975   0.52906   0.70256
     Eigenvalues ---    0.97298   1.56262
 Angle between quadratic step and forces=  34.92 degrees.
 Linear search not attempted -- first point.
 B after Tr=     0.005510    0.004718   -0.011798
         Rot=    1.000000   -0.000004    0.000000   -0.000109 Ang=  -0.01 deg.
 Variable       Old X    -DE/DX   Delta X   Delta X   Delta X     New X
                                 (Linear)    (Quad)   (Total)
    X1       -0.63388   0.01305   0.00000   0.01841   0.02415  -0.60973
    Y1       -1.09636   0.00462   0.00000   0.01749   0.02207  -1.07429
    Z1        0.01340  -0.00451   0.00000  -0.02438  -0.03618  -0.02278
    X2        0.40024  -0.00924   0.00000  -0.03051  -0.02437   0.37587
    Y2       -2.90101   0.00849   0.00000   0.02887   0.03367  -2.86734
    Z2       -0.04969   0.00236   0.00000   0.03014   0.01832  -0.03136
    X3       -2.68542   0.00267   0.00000   0.02476   0.03052  -2.65491
    Y3       -1.12391  -0.00329   0.00000  -0.01230  -0.00817  -1.13208
    Z3       -0.05075   0.00212   0.00000   0.02973   0.01792  -0.03282
    X4        0.63083   0.00832   0.00000   0.00438   0.00965   0.64048
    Y4        1.09344   0.00516   0.00000   0.00205   0.00691   1.10036
    Z4        0.01197  -0.00519   0.00000  -0.02446  -0.03625  -0.02428
    X5       -0.31528   0.00234   0.00000  -0.00398   0.00089  -0.31439
    Y5        2.94465  -0.01088   0.00000  -0.03643  -0.03179   2.91287
    Z5       -0.05604   0.00252   0.00000   0.03006   0.01829  -0.03775
    X6        2.72740  -0.01715   0.00000  -0.04609  -0.04084   2.68656
    Y6        1.20551  -0.00410   0.00000  -0.02801  -0.02270   1.18281
    Z6       -0.05530   0.00270   0.00000   0.02968   0.01789  -0.03740
         Item               Value     Threshold  Converged?
 Maximum Force            0.017149     0.000450     NO 
 RMS     Force            0.007335     0.000300     NO 
 Maximum Displacement     0.040843     0.001800     NO 
 RMS     Displacement     0.024795     0.001200     NO 
 Predicted change in Energy=-1.410466D-03
 GradGradGradGradGradGradGradGradGradGradGradGradGradGradGradGradGradGrad

 Unable to Open any file for archive entry.
 1\1\GINC-BHD0003\Force\RwB97XD\6-311G\C2H4\BWEIGHT\11-Jan-2023\0\\# WB
 97XD/6-311G SCF=XQC FORCE nosym pop=full guess=read\\MD Step 1000\\0,1
 \C,-0.33543732,-0.58016919,0.00709035\H,0.21180019,-1.53514661,-0.0262
 9254\H,-1.42106524,-0.59474848,-0.02685497\C,0.33381989,0.57862617,0.0
 0633391\H,-0.16683798,1.5582427,-0.02965457\H,1.44327725,0.6379272,-0.
 02926171\\Version=ES64L-G16RevC.01\HF=-78.5559975\RMSD=6.297e-09\RMSF=
 7.335e-03\Dipole=-0.0013785,0.0066779,-0.045274\Quadrupole=0.8628381,0
 .8507791,-1.7136172,0.0088966,-0.0016414,-0.0035783\PG=C01 [X(C2H4)]\\
 @
 The archive entry for this job was punched.


 When I told the people of Northern Ireland that I was
 an atheist, a woman in the audience stood up and said,
 "Yes, but is it the God of the Catholics or the God
 of the Protestants in whom you don't believe?"
                               -- Quentin Crisp
 Job cpu time:       0 days  0 hours  0 minutes 14.5 seconds.
 Elapsed time:       0 days  0 hours  0 minutes  3.9 seconds.
 File lengths (MBytes):  RWF=    272 Int=      0 D2E=      0 Chk=     32 Scr=     32
 Normal termination of Gaussian 16 at Wed Jan 11 19:54:03 2023.
