 Entering Gaussian System, Link 0=g16
 Initial command:
 /software/gaussian/g16-c01/avx2/g16/l1.exe "/gpfs/fs2/scratch/bweight/software/many_molecule_many_mode_NAMD/src/NAMD/TESTING/G16/GS_NEW/Gau-30863.inp" -scrdir="/gpfs/fs2/scratch/bweight/software/many_molecule_many_mode_NAMD/src/NAMD/TESTING/G16/GS_NEW/"
 Entering Link 1 = /software/gaussian/g16-c01/avx2/g16/l1.exe PID=     30864.
  
 Copyright (c) 1988-2019, Gaussian, Inc.  All Rights Reserved.
  
 This is part of the Gaussian(R) 16 program.  It is based on
 the Gaussian(R) 09 system (copyright 2009, Gaussian, Inc.),
 the Gaussian(R) 03 system (copyright 2003, Gaussian, Inc.),
 the Gaussian(R) 98 system (copyright 1998, Gaussian, Inc.),
 the Gaussian(R) 94 system (copyright 1995, Gaussian, Inc.),
 the Gaussian 92(TM) system (copyright 1992, Gaussian, Inc.),
 the Gaussian 90(TM) system (copyright 1990, Gaussian, Inc.),
 the Gaussian 88(TM) system (copyright 1988, Gaussian, Inc.),
 the Gaussian 86(TM) system (copyright 1986, Carnegie Mellon
 University), and the Gaussian 82(TM) system (copyright 1983,
 Carnegie Mellon University). Gaussian is a federally registered
 trademark of Gaussian, Inc.
  
 This software contains proprietary and confidential information,
 including trade secrets, belonging to Gaussian, Inc.
  
 This software is provided under written license and may be
 used, copied, transmitted, or stored only in accord with that
 written license.
  
 The following legend is applicable only to US Government
 contracts under FAR:
  
                    RESTRICTED RIGHTS LEGEND
  
 Use, reproduction and disclosure by the US Government is
 subject to restrictions as set forth in subparagraphs (a)
 and (c) of the Commercial Computer Software - Restricted
 Rights clause in FAR 52.227-19.
  
 Gaussian, Inc.
 340 Quinnipiac St., Bldg. 40, Wallingford CT 06492
  
  
 ---------------------------------------------------------------
 Warning -- This program may not be used in any manner that
 competes with the business of Gaussian, Inc. or will provide
 assistance to any competitor of Gaussian, Inc.  The licensee
 of this program is prohibited from giving any competitor of
 Gaussian, Inc. access to this program.  By using this program,
 the user acknowledges that Gaussian, Inc. is engaged in the
 business of creating and licensing software in the field of
 computational chemistry and represents and warrants to the
 licensee that it is not a competitor of Gaussian, Inc. and that
 it will not use this program in any manner prohibited above.
 ---------------------------------------------------------------
  

 Cite this work as:
 Gaussian 16, Revision C.01,
 M. J. Frisch, G. W. Trucks, H. B. Schlegel, G. E. Scuseria, 
 M. A. Robb, J. R. Cheeseman, G. Scalmani, V. Barone, 
 G. A. Petersson, H. Nakatsuji, X. Li, M. Caricato, A. V. Marenich, 
 J. Bloino, B. G. Janesko, R. Gomperts, B. Mennucci, H. P. Hratchian, 
 J. V. Ortiz, A. F. Izmaylov, J. L. Sonnenberg, D. Williams-Young, 
 F. Ding, F. Lipparini, F. Egidi, J. Goings, B. Peng, A. Petrone, 
 T. Henderson, D. Ranasinghe, V. G. Zakrzewski, J. Gao, N. Rega, 
 G. Zheng, W. Liang, M. Hada, M. Ehara, K. Toyota, R. Fukuda, 
 J. Hasegawa, M. Ishida, T. Nakajima, Y. Honda, O. Kitao, H. Nakai, 
 T. Vreven, K. Throssell, J. A. Montgomery, Jr., J. E. Peralta, 
 F. Ogliaro, M. J. Bearpark, J. J. Heyd, E. N. Brothers, K. N. Kudin, 
 V. N. Staroverov, T. A. Keith, R. Kobayashi, J. Normand, 
 K. Raghavachari, A. P. Rendell, J. C. Burant, S. S. Iyengar, 
 J. Tomasi, M. Cossi, J. M. Millam, M. Klene, C. Adamo, R. Cammi, 
 J. W. Ochterski, R. L. Martin, K. Morokuma, O. Farkas, 
 J. B. Foresman, and D. J. Fox, Gaussian, Inc., Wallingford CT, 2019.
 
 ******************************************
 Gaussian 16:  ES64L-G16RevC.01  3-Jul-2019
                29-Dec-2022 
 ******************************************
 %oldchk=../GS_OLD/geometry.chk
 %chk=geometry.chk
 %nprocshared=1
 Will use up to    1 processors via shared memory.
 %mem=5GB
 Copying data from "../GS_OLD/geometry.chk" to current chk file "geometry.chk"
 IOpt=  2 FromEx=T IUOpen= 4 IOptOp= 5 NList=   0 IFRang= 0 IUIn= 4 IUOut= 2.
 -----------------------------------------
 # BLYP/3-21G SCF=XQC FORCE nosym pop=full
 -----------------------------------------
 1/10=7,30=1,38=1/1,3;
 2/12=2,15=1,17=6,18=5,40=1/2;
 3/5=5,11=2,25=1,30=1,71=1,74=402/1,2,3;
 4//1;
 5/5=2,8=3,13=1,38=5/2,8;
 6/7=3,28=1/1;
 7/29=1,30=1/1,2,3,16;
 1/10=7,30=1/3;
 99//99;
 ---------
 MD Step 1
 ---------
 Symbolic Z-matrix:
 Charge =  0 Multiplicity = 1
 Li                    0.00833   0.00833  -0.02814 
 F                     0.00503   0.00503   1.01836 
 

 GradGradGradGradGradGradGradGradGradGradGradGradGradGradGradGradGradGrad
 Berny optimization.
 Initialization pass.
 Trust Radius=3.00D-01 FncErr=1.00D-07 GrdErr=1.00D-07 EigMax=2.50D+02 EigMin=1.00D-04
 Number of steps in this run=      2 maximum allowed number of steps=      2.
 GradGradGradGradGradGradGradGradGradGradGradGradGradGradGradGradGradGrad

                          Input orientation:                          
 ---------------------------------------------------------------------
 Center     Atomic      Atomic             Coordinates (Angstroms)
 Number     Number       Type             X           Y           Z
 ---------------------------------------------------------------------
      1          3           0        0.008331    0.008333   -0.028136
      2          9           0        0.005035    0.005035    1.018359
 ---------------------------------------------------------------------
 Symmetry turned off by external request.
 Stoichiometry    FLi
 Framework group  C*V[C*(LiF)]
 Deg. of freedom     1
 Full point group                 C*V     NOp   4
 Rotational constants (GHZ):           0.0000000          90.0619581          90.0619581
 Standard basis: 3-21G (6D, 7F)
    18 basis functions,    30 primitive gaussians,    18 cartesian basis functions
     6 alpha electrons        6 beta electrons
       nuclear repulsion energy        13.6528556507 Hartrees.
 NAtoms=    2 NActive=    2 NUniq=    2 SFac= 1.00D+00 NAtFMM=   60 NAOKFM=F Big=F
 Integral buffers will be    131072 words long.
 Raffenetti 2 integral format.
 Two-electron integral symmetry is turned off.
 One-electron integrals computed using PRISM.
 NBasis=    18 RedAO= T EigKep=  9.92D-02  NBF=    18
 NBsUse=    18 1.00D-06 EigRej= -1.00D+00 NBFU=    18
 ExpMin= 2.86D-02 ExpMax= 4.14D+02 ExpMxC= 4.14D+02 IAcc=3 IRadAn=         5 AccDes= 0.00D+00
 Harris functional with IExCor=  402 and IRadAn=       5 diagonalized for initial guess.
 HarFok:  IExCor=  402 AccDes= 0.00D+00 IRadAn=         5 IDoV= 1 UseB2=F ITyADJ=14
 ICtDFT=  3500011 ScaDFX=  1.000000  1.000000  1.000000  1.000000
 FoFCou: FMM=F IPFlag=           0 FMFlag=      100000 FMFlg1=           0
         NFxFlg=           0 DoJE=T BraDBF=F KetDBF=T FulRan=T
         wScrn=  0.000000 ICntrl=       500 IOpCl=  0 I1Cent=   200000004 NGrid=           0
         NMat0=    1 NMatS0=      1 NMatT0=    0 NMatD0=    1 NMtDS0=    0 NMtDT0=    0
 Symmetry not used in FoFCou.
 Keep J ints in memory in canonical form, NReq=877801.
 Requested convergence on RMS density matrix=1.00D-08 within  32 cycles.
 Requested convergence on MAX density matrix=1.00D-06.
 Requested convergence on             energy=1.00D-06.
 No special actions if energy rises.
 SCF Done:  E(RB-LYP) =  -106.551240348     A.U. after    9 cycles
            NFock=  9  Conv=0.29D-08     -V/T= 1.9934
 QCSCF skips out because SCF is already converged.

 **********************************************************************

            Population analysis using the SCF Density.

 **********************************************************************

 Alpha  occ. eigenvalues --  -24.04283  -1.86805  -0.90842  -0.28943  -0.28943
 Alpha  occ. eigenvalues --   -0.20264
 Alpha virt. eigenvalues --   -0.05735   0.01728   0.01729   0.03534   0.11067
 Alpha virt. eigenvalues --    0.16936   0.16936   0.29835   1.89727   1.89727
 Alpha virt. eigenvalues --    1.94252   3.48435
     Molecular Orbital Coefficients:
                           1         2         3         4         5
                           O         O         O         O         O
     Eigenvalues --   -24.04283  -1.86805  -0.90842  -0.28943  -0.28943
   1 1   Li 1S          0.00452   0.92647  -0.33223  -0.00000  -0.00000
   2        2S          0.01056   0.05673  -0.01903  -0.00000  -0.00000
   3        2PX        -0.00003   0.00005  -0.00018  -0.18205   0.18210
   4        2PY        -0.00003   0.00005  -0.00018   0.18211   0.18205
   5        2PZ         0.00998  -0.01658   0.05632   0.00000   0.00115
   6        3S         -0.00277  -0.02126   0.02533   0.00000   0.00000
   7        3PX         0.00001  -0.00002   0.00002   0.01104  -0.01104
   8        3PY         0.00001  -0.00002   0.00002  -0.01104  -0.01104
   9        3PZ        -0.00250   0.00696  -0.00595  -0.00000  -0.00007
  10 2   F  1S          0.98096  -0.04555  -0.25420   0.00000   0.00000
  11        2S          0.10397   0.04145   0.24419  -0.00000  -0.00000
  12        2PX         0.00000   0.00019   0.00006  -0.36007   0.36018
  13        2PY         0.00000   0.00019   0.00006   0.36018   0.36007
  14        2PZ        -0.00135  -0.05975  -0.01935   0.00000   0.00227
  15        3S         -0.04028   0.11967   0.80116   0.00000   0.00000
  16        3PX        -0.00001   0.00017   0.00010  -0.37833   0.37844
  17        3PY        -0.00001   0.00017   0.00010   0.37845   0.37833
  18        3PZ         0.00307  -0.05408  -0.03269   0.00000   0.00238
                           6         7         8         9        10
                           O         V         V         V         V
     Eigenvalues --    -0.20264  -0.05735   0.01728   0.01729   0.03534
   1 1   Li 1S          0.31924  -0.19996   0.00000   0.00001  -0.07522
   2        2S          0.04669   0.25528   0.00000   0.00001  -0.11053
   3        2PX         0.00041   0.00069  -0.05470   0.05471   0.00021
   4        2PY         0.00041   0.00069   0.05470   0.05470   0.00021
   5        2PZ        -0.12855  -0.21965   0.00000   0.00035  -0.06424
   6        3S          0.13086   0.70744  -0.00000  -0.00004   0.47494
   7        3PX        -0.00044   0.00075  -0.67093   0.67094  -0.00302
   8        3PY        -0.00044   0.00075   0.67095   0.67092  -0.00303
   9        3PZ         0.13969  -0.23511   0.00000   0.00417   0.97313
  10 2   F  1S         -0.00137   0.01727  -0.00000  -0.00000   0.03523
  11        2S         -0.00235  -0.01599   0.00000   0.00000  -0.03382
  12        2PX        -0.00178   0.00022   0.09220  -0.09220   0.00032
  13        2PY        -0.00178   0.00022  -0.09220  -0.09220   0.00032
  14        2PZ         0.56454  -0.06927  -0.00000  -0.00057  -0.10448
  15        3S          0.00825  -0.09990   0.00000   0.00001  -0.19636
  16        3PX        -0.00188   0.00023   0.11190  -0.11190   0.00040
  17        3PY        -0.00189   0.00023  -0.11190  -0.11190   0.00040
  18        3PZ         0.59819  -0.07255  -0.00000  -0.00070  -0.12883
                          11        12        13        14        15
                           V         V         V         V         V
     Eigenvalues --     0.11067   0.16936   0.16936   0.29835   1.89727
   1 1   Li 1S         -0.12462  -0.00000  -0.00000   0.10813  -0.00000
   2        2S          1.30818   0.00000   0.00003   1.23264  -0.00000
   3        2PX         0.00203  -0.90570   0.90573  -0.00444  -0.25454
   4        2PY         0.00203   0.90574   0.90569  -0.00444   0.25433
   5        2PZ        -0.65155   0.00000   0.00569   1.40894  -0.00000
   6        3S         -1.23484  -0.00000  -0.00003  -0.62634   0.00000
   7        3PX        -0.00153   0.57068  -0.57070   0.00197   0.06870
   8        3PY        -0.00153  -0.57071  -0.57068   0.00198  -0.06864
   9        3PZ         0.48784  -0.00000  -0.00358  -0.62664   0.00000
  10 2   F  1S         -0.00628  -0.00000  -0.00000   0.10001  -0.00000
  11        2S         -0.00726  -0.00000  -0.00000  -0.05535   0.00000
  12        2PX        -0.00005   0.15061  -0.15061  -0.00020  -0.71405
  13        2PY        -0.00005  -0.15061  -0.15061  -0.00020   0.71346
  14        2PZ         0.01592  -0.00000  -0.00095   0.06206  -0.00000
  15        3S          0.07078   0.00000   0.00000  -0.97462   0.00000
  16        3PX         0.00013   0.23718  -0.23719  -0.00039   0.76704
  17        3PY         0.00013  -0.23719  -0.23718  -0.00039  -0.76640
  18        3PZ        -0.04042  -0.00000  -0.00150   0.12303   0.00000
                          16        17        18
                           V         V         V
     Eigenvalues --     1.89727   1.94252   3.48435
   1 1   Li 1S         -0.00000   0.33750  -0.26843
   2        2S         -0.00000   0.22749  -0.58613
   3        2PX        -0.25433   0.00006   0.00175
   4        2PY        -0.25454   0.00006   0.00175
   5        2PZ        -0.00160  -0.02014  -0.55589
   6        3S          0.00000  -0.17247   0.16387
   7        3PX         0.06864   0.00020  -0.00045
   8        3PY         0.06870   0.00020  -0.00045
   9        3PZ         0.00043  -0.06349   0.14430
  10 2   F  1S         -0.00000   0.01943   0.10985
  11        2S          0.00000  -0.06907  -1.59518
  12        2PX        -0.71345   0.00316  -0.00024
  13        2PY        -0.71404   0.00316  -0.00024
  14        2PZ        -0.00450  -1.00275   0.07542
  15        3S          0.00000  -0.02521   1.84579
  16        3PX         0.76639  -0.00348   0.00064
  17        3PY         0.76703  -0.00348   0.00064
  18        3PZ         0.00483   1.10473  -0.20367
     Density Matrix:
                           1         2         3         4         5
   1 1   Li 1S          2.14131
   2        2S          0.14767   0.01174
   3        2PX         0.00047   0.00005   0.13261
   4        2PY         0.00047   0.00005  -0.00000   0.13261
   5        2PZ        -0.15013  -0.01582   0.00029   0.00029   0.04014
   6        3S          0.02731   0.00879   0.00010   0.00010  -0.03014
   7        3PX        -0.00033  -0.00004  -0.00804  -0.00000   0.00009
   8        3PY        -0.00033  -0.00004  -0.00000  -0.00804   0.00009
   9        3PZ         0.10602   0.01401   0.00009   0.00009  -0.03686
  10 2   F  1S          0.09249   0.02511   0.00002   0.00002  -0.00719
  11        2S         -0.08600  -0.00261  -0.00009  -0.00009   0.02881
  12        2PX        -0.00083  -0.00015   0.26228  -0.00000   0.00128
  13        2PY        -0.00083  -0.00015  -0.00000   0.26228   0.00128
  14        2PZ         0.26258   0.04665   0.00128   0.00128  -0.14536
  15        3S         -0.30570  -0.01700  -0.00026  -0.00026   0.08335
  16        3PX        -0.00096  -0.00016   0.27558  -0.00000   0.00136
  17        3PY        -0.00096  -0.00016  -0.00000   0.27558   0.00136
  18        3PZ         0.30349   0.05103   0.00136   0.00136  -0.15562
                           6         7         8         9        10
   6        3S          0.03645
   7        3PX        -0.00011   0.00049
   8        3PY        -0.00011   0.00000   0.00049
   9        3PZ         0.03598  -0.00012  -0.00012   0.03920
  10 2   F  1S         -0.01674   0.00001   0.00001  -0.00290   2.05794
  11        2S          0.00942   0.00001   0.00001  -0.00351   0.07607
  12        2PX        -0.00047  -0.01590   0.00000  -0.00055  -0.00003
  13        2PY        -0.00047   0.00000  -0.01590  -0.00055  -0.00003
  14        2PZ         0.14933  -0.00055  -0.00055   0.15712   0.01108
  15        3S          0.03788   0.00002   0.00002  -0.00537  -0.49726
  16        3PX        -0.00049  -0.01670   0.00000  -0.00058  -0.00008
  17        3PY        -0.00049   0.00000  -0.01670  -0.00058  -0.00008
  18        3PZ         0.15719  -0.00058  -0.00058   0.16674   0.02592
                          11        12        13        14        15
  11        2S          0.14433
  12        2PX         0.00005   0.51877
  13        2PY         0.00005   0.00000   0.51877
  14        2PZ        -0.01734  -0.00040  -0.00040   0.64532
  15        3S          0.39278   0.00011   0.00011  -0.03588   1.31572
  16        3PX         0.00007   0.54508   0.00000  -0.00043   0.00018
  17        3PY         0.00007   0.00000   0.54508  -0.00044   0.00018
  18        3PZ        -0.02262  -0.00043  -0.00044   0.68314  -0.05570
                          16        17        18
  16        3PX         0.57271
  17        3PY         0.00000   0.57271
  18        3PZ        -0.00048  -0.00048   0.72369
    Full Mulliken population analysis:
                           1         2         3         4         5
   1 1   Li 1S          2.14131
   2        2S          0.02617   0.01174
   3        2PX         0.00000   0.00000   0.13261
   4        2PY         0.00000   0.00000   0.00000   0.13261
   5        2PZ         0.00000   0.00000   0.00000   0.00000   0.04014
   6        3S          0.00384   0.00688   0.00000   0.00000   0.00000
   7        3PX         0.00000   0.00000  -0.00473   0.00000   0.00000
   8        3PY         0.00000   0.00000   0.00000  -0.00473   0.00000
   9        3PZ         0.00000   0.00000   0.00000   0.00000  -0.02170
  10 2   F  1S          0.00035   0.00098  -0.00000  -0.00000  -0.00042
  11        2S         -0.00377  -0.00051   0.00000   0.00000   0.00804
  12        2PX        -0.00000  -0.00000   0.02107   0.00000   0.00000
  13        2PY        -0.00000  -0.00000   0.00000   0.02107   0.00000
  14        2PZ        -0.01784  -0.00063   0.00000   0.00000   0.00327
  15        3S         -0.05783  -0.00761   0.00000   0.00000   0.04472
  16        3PX        -0.00000  -0.00000   0.10765   0.00000   0.00000
  17        3PY        -0.00000  -0.00000   0.00000   0.10765   0.00000
  18        3PZ        -0.11533  -0.00617   0.00000   0.00000  -0.00835
                           6         7         8         9        10
   6        3S          0.03645
   7        3PX         0.00000   0.00049
   8        3PY         0.00000   0.00000   0.00049
   9        3PZ         0.00000   0.00000   0.00000   0.03920
  10 2   F  1S         -0.00034  -0.00000  -0.00000  -0.00004   2.05794
  11        2S          0.00102  -0.00000  -0.00000  -0.00025   0.01633
  12        2PX        -0.00000  -0.00032  -0.00000  -0.00000   0.00000
  13        2PY        -0.00000  -0.00000  -0.00032  -0.00000   0.00000
  14        2PZ        -0.00102  -0.00000  -0.00000   0.00250   0.00000
  15        3S          0.01062  -0.00000  -0.00000  -0.00095  -0.09129
  16        3PX        -0.00000  -0.00215  -0.00000  -0.00000   0.00000
  17        3PY        -0.00000  -0.00000  -0.00215  -0.00000   0.00000
  18        3PZ        -0.00677  -0.00000  -0.00000   0.01694   0.00000
                          11        12        13        14        15
  11        2S          0.14433
  12        2PX         0.00000   0.51877
  13        2PY         0.00000   0.00000   0.51877
  14        2PZ         0.00000   0.00000   0.00000   0.64532
  15        3S          0.28759   0.00000   0.00000   0.00000   1.31572
  16        3PX         0.00000   0.26620   0.00000   0.00000   0.00000
  17        3PY         0.00000   0.00000   0.26620   0.00000   0.00000
  18        3PZ         0.00000   0.00000   0.00000   0.33363   0.00000
                          16        17        18
  16        3PX         0.57271
  17        3PY         0.00000   0.57271
  18        3PZ         0.00000   0.00000   0.72369
     Gross orbital populations:
                           1
   1 1   Li 1S          1.97690
   2        2S          0.03085
   3        2PX         0.25660
   4        2PY         0.25660
   5        2PZ         0.06571
   6        3S          0.05069
   7        3PX        -0.00672
   8        3PY        -0.00672
   9        3PZ         0.03571
  10 2   F  1S          1.98352
  11        2S          0.45279
  12        2PX         0.80571
  13        2PY         0.80571
  14        2PZ         0.96523
  15        3S          1.50097
  16        3PX         0.94441
  17        3PY         0.94441
  18        3PZ         0.93764
          Condensed to atoms (all electrons):
               1          2
     1  Li   2.546507   0.113102
     2  F    0.113102   9.227289
 Mulliken charges:
               1
     1  Li   0.340391
     2  F   -0.340391
 Sum of Mulliken charges =  -0.00000
 Mulliken charges with hydrogens summed into heavy atoms:
               1
     1  Li   0.340391
     2  F   -0.340391
 Electronic spatial extent (au):  <R**2>=             53.1423
 Charge=             -0.0000 electrons
 Dipole moment (field-independent basis, Debye):
    X=              0.0105    Y=              0.0105    Z=             -3.3467  Tot=              3.3467
 Quadrupole moment (field-independent basis, Debye-Ang):
   XX=             -7.9292   YY=             -7.9292   ZZ=            -10.7736
   XY=              0.0001   XZ=             -0.0186   YZ=             -0.0186
 Traceless Quadrupole moment (field-independent basis, Debye-Ang):
   XX=              0.9481   YY=              0.9482   ZZ=             -1.8963
   XY=              0.0001   XZ=             -0.0186   YZ=             -0.0186
 Octapole moment (field-independent basis, Debye-Ang**2):
  XXX=             -0.1373  YYY=             -0.1373  ZZZ=            -21.1536  XYY=             -0.0457
  XXY=             -0.0458  XXZ=             -6.2245  XZZ=             -0.0614  YZZ=             -0.0614
  YYZ=             -6.2245  XYZ=             -0.0001
 Hexadecapole moment (field-independent basis, Debye-Ang**3):
 XXXX=            -13.3057 YYYY=            -13.3057 ZZZZ=            -55.7561 XXXY=             -0.0008
 XXXZ=             -0.0909 YYYX=             -0.0008 YYYZ=             -0.0909 ZZZX=             -0.1036
 ZZZY=             -0.1036 XXYY=             -4.4352 XXZZ=            -11.0979 YYZZ=            -11.0979
 XXYZ=             -0.0303 YYXZ=             -0.0303 ZZXY=             -0.0004
 N-N= 1.365285565067D+01 E-N=-2.834646369878D+02  KE= 1.072619371597D+02
 Orbital energies and kinetic energies (alpha):
                                 1                 2
   1         O               -24.042828         36.768591
   2         O                -1.868047          3.294770
   3         O                -0.908422          4.321444
   4         O                -0.289433          2.790400
   5         O                -0.289433          2.790400
   6         O                -0.202639          3.665363
   7         V                -0.057347          0.299187
   8         V                 0.017285          0.256213
   9         V                 0.017286          0.256217
  10         V                 0.035345          0.292469
  11         V                 0.110674          0.371937
  12         V                 0.169361          0.856833
  13         V                 0.169362          0.856829
  14         V                 0.298350          1.092827
  15         V                 1.897272          6.477295
  16         V                 1.897272          6.477295
  17         V                 1.942520          6.661832
  18         V                 3.484346          8.812463
 Total kinetic energy from orbitals= 1.072619371597D+02
 Calling FoFJK, ICntrl=      2527 FMM=F ISym2X=0 I1Cent= 0 IOpClX= 0 NMat=1 NMatS=1 NMatT=0.
 -------------------------------------------------------------------
 Center     Atomic                   Forces (Hartrees/Bohr)
 Number     Number              X              Y              Z
 -------------------------------------------------------------------
      1        3           0.002867353    0.002869040   -0.910448682
      2        9          -0.002867353   -0.002869040    0.910448682
 -------------------------------------------------------------------
 Cartesian Forces:  Max     0.910448682 RMS     0.525653008

 GradGradGradGradGradGradGradGradGradGradGradGradGradGradGradGradGradGrad
 Berny optimization.
 Search for a local minimum.
 Step number   1 out of a maximum of    2
 All quantities printed in internal units (Hartrees-Bohrs-Radians)
 Second derivative matrix not updated -- first step.
 The second derivative matrix:
                          X1        Y1        Z1        X2        Y2
           X1           1.00000
           Y1           0.00002   1.00000
           Z1          -0.00768  -0.00768   2.43814
           X2          -0.00002  -0.00002   0.00768   1.00000
           Y2          -0.00002  -0.00002   0.00768   0.00002   1.00000
           Z2           0.00768   0.00768  -2.43814  -0.00768  -0.00768
                          Z2
           Z2           2.43814
 ITU=  0
     Eigenvalues ---    4.54973
 Angle between quadratic step and forces=  15.00 degrees.
 Linear search not attempted -- first point.
 B after Tr=    -0.000158   -0.000158    0.050028
         Rot=    1.000000   -0.000000   -0.000000    0.000000 Ang=   0.00 deg.
 Variable       Old X    -DE/DX   Delta X   Delta X   Delta X     New X
                                 (Linear)    (Quad)   (Total)
    X1        0.01574   0.00287   0.00000   0.00075   0.00059   0.01633
    Y1        0.01575   0.00287   0.00000   0.00075   0.00059   0.01634
    Z1       -0.05317  -0.91045   0.00000  -0.23673  -0.18671  -0.23987
    X2        0.00951  -0.00287   0.00000  -0.00043  -0.00059   0.00893
    Y2        0.00951  -0.00287   0.00000  -0.00043  -0.00059   0.00893
    Z2        1.92442   0.91045   0.00000   0.13668   0.18671   2.11113
         Item               Value     Threshold  Converged?
 Maximum Force            0.910449     0.000450     NO 
 RMS     Force            0.525653     0.000300     NO 
 Maximum Displacement     0.186706     0.001800     NO 
 RMS     Displacement     0.107796     0.001200     NO 
 Predicted change in Energy=-1.699892D-01
 GradGradGradGradGradGradGradGradGradGradGradGradGradGradGradGradGradGrad

 Unable to Open any file for archive entry.
 1\1\GINC-BHD0001\Force\RBLYP\3-21G\F1Li1\BWEIGHT\29-Dec-2022\0\\# BLYP
 /3-21G SCF=XQC FORCE nosym pop=full\\MD Step 1\\0,1\Li,0.00833099,0.00
 833316,-0.02813557\F,0.00503465,0.00503488,1.01835926\\Version=ES64L-G
 16RevC.01\HF=-106.5512403\RMSD=2.894e-09\RMSF=5.257e-01\Dipole=0.00414
 68,0.0041492,-1.3166809\Quadrupole=0.7049262,0.7049263,-1.4098525,0.00
 01083,-0.0138461,-0.0138475\PG=C*V [C*(Li1F1)]\\@
 The archive entry for this job was punched.


 THE THINKER DIES, BUT HIS THOUGHTS ARE BEYOND THE 
 REACH OF DESTRUCTION.  MEN ARE MORTAL; BUT IDEAS 
 ARE IMMORTAL.
                              -- WALTER LIPPMANN
 Job cpu time:       0 days  0 hours  0 minutes  3.9 seconds.
 Elapsed time:       0 days  0 hours  0 minutes  4.2 seconds.
 File lengths (MBytes):  RWF=    272 Int=      0 D2E=      0 Chk=     32 Scr=     32
 Normal termination of Gaussian 16 at Thu Dec 29 19:35:56 2022.
