 Entering Gaussian System, Link 0=g16
 Initial command:
 /software/gaussian/g16-c01/avx2/g16/l1.exe "/gpfs/fs2/scratch/bweight/software/many_molecule_many_mode_NAMD/src/NAMD/TESTING/G16/GS_NEW/Gau-14568.inp" -scrdir="/gpfs/fs2/scratch/bweight/software/many_molecule_many_mode_NAMD/src/NAMD/TESTING/G16/GS_NEW/"
 Entering Link 1 = /software/gaussian/g16-c01/avx2/g16/l1.exe PID=     14569.
  
 Copyright (c) 1988-2019, Gaussian, Inc.  All Rights Reserved.
  
 This is part of the Gaussian(R) 16 program.  It is based on
 the Gaussian(R) 09 system (copyright 2009, Gaussian, Inc.),
 the Gaussian(R) 03 system (copyright 2003, Gaussian, Inc.),
 the Gaussian(R) 98 system (copyright 1998, Gaussian, Inc.),
 the Gaussian(R) 94 system (copyright 1995, Gaussian, Inc.),
 the Gaussian 92(TM) system (copyright 1992, Gaussian, Inc.),
 the Gaussian 90(TM) system (copyright 1990, Gaussian, Inc.),
 the Gaussian 88(TM) system (copyright 1988, Gaussian, Inc.),
 the Gaussian 86(TM) system (copyright 1986, Carnegie Mellon
 University), and the Gaussian 82(TM) system (copyright 1983,
 Carnegie Mellon University). Gaussian is a federally registered
 trademark of Gaussian, Inc.
  
 This software contains proprietary and confidential information,
 including trade secrets, belonging to Gaussian, Inc.
  
 This software is provided under written license and may be
 used, copied, transmitted, or stored only in accord with that
 written license.
  
 The following legend is applicable only to US Government
 contracts under FAR:
  
                    RESTRICTED RIGHTS LEGEND
  
 Use, reproduction and disclosure by the US Government is
 subject to restrictions as set forth in subparagraphs (a)
 and (c) of the Commercial Computer Software - Restricted
 Rights clause in FAR 52.227-19.
  
 Gaussian, Inc.
 340 Quinnipiac St., Bldg. 40, Wallingford CT 06492
  
  
 ---------------------------------------------------------------
 Warning -- This program may not be used in any manner that
 competes with the business of Gaussian, Inc. or will provide
 assistance to any competitor of Gaussian, Inc.  The licensee
 of this program is prohibited from giving any competitor of
 Gaussian, Inc. access to this program.  By using this program,
 the user acknowledges that Gaussian, Inc. is engaged in the
 business of creating and licensing software in the field of
 computational chemistry and represents and warrants to the
 licensee that it is not a competitor of Gaussian, Inc. and that
 it will not use this program in any manner prohibited above.
 ---------------------------------------------------------------
  

 Cite this work as:
 Gaussian 16, Revision C.01,
 M. J. Frisch, G. W. Trucks, H. B. Schlegel, G. E. Scuseria, 
 M. A. Robb, J. R. Cheeseman, G. Scalmani, V. Barone, 
 G. A. Petersson, H. Nakatsuji, X. Li, M. Caricato, A. V. Marenich, 
 J. Bloino, B. G. Janesko, R. Gomperts, B. Mennucci, H. P. Hratchian, 
 J. V. Ortiz, A. F. Izmaylov, J. L. Sonnenberg, D. Williams-Young, 
 F. Ding, F. Lipparini, F. Egidi, J. Goings, B. Peng, A. Petrone, 
 T. Henderson, D. Ranasinghe, V. G. Zakrzewski, J. Gao, N. Rega, 
 G. Zheng, W. Liang, M. Hada, M. Ehara, K. Toyota, R. Fukuda, 
 J. Hasegawa, M. Ishida, T. Nakajima, Y. Honda, O. Kitao, H. Nakai, 
 T. Vreven, K. Throssell, J. A. Montgomery, Jr., J. E. Peralta, 
 F. Ogliaro, M. J. Bearpark, J. J. Heyd, E. N. Brothers, K. N. Kudin, 
 V. N. Staroverov, T. A. Keith, R. Kobayashi, J. Normand, 
 K. Raghavachari, A. P. Rendell, J. C. Burant, S. S. Iyengar, 
 J. Tomasi, M. Cossi, J. M. Millam, M. Klene, C. Adamo, R. Cammi, 
 J. W. Ochterski, R. L. Martin, K. Morokuma, O. Farkas, 
 J. B. Foresman, and D. J. Fox, Gaussian, Inc., Wallingford CT, 2019.
 
 ******************************************
 Gaussian 16:  ES64L-G16RevC.01  3-Jul-2019
                29-Dec-2022 
 ******************************************
 %chk=geometry.chk
 %nprocshared=1
 Will use up to    1 processors via shared memory.
 %mem=5GB
 ------------------------------------------
 # BLYP/STO-3G SCF=XQC FORCE nosym pop=full
 ------------------------------------------
 1/10=7,30=1,38=1/1,3;
 2/12=2,15=1,17=6,18=5,40=1/2;
 3/6=3,11=2,25=1,30=1,71=1,74=402/1,2,3;
 4//1;
 5/5=2,8=3,13=1,38=5/2,8;
 6/7=3,28=1/1;
 7/29=1,30=1/1,2,3,16;
 1/10=7,30=1/3;
 99//99;
 ---------
 MD Step 0
 ---------
 Symbolic Z-matrix:
 Charge =  0 Multiplicity = 1
 C                    -0.93249   0.12586   0. 
 C                     0.46267   0.12586   0. 
 C                     1.1602    1.33361   0. 
 C                     0.46255   2.54212  -0.0012 
 C                    -0.93228   2.54204  -0.00168 
 C                    -1.62988   1.33383  -0.00068 
 H                    -1.48225  -0.82646   0.00045 
 H                     1.01217  -0.82665   0.00132 
 H                     1.01275   3.49426  -0.00126 
 H                    -1.4824    3.49432  -0.00263 
 N                     2.6302    1.33372   0.00085 
 H                     2.9631    0.86269   0.81774 
 H                     2.96404   0.86199  -0.81525 
 N                    -3.09988   1.33408  -0.00092 
 H                    -3.43326   1.80405   0.81638 
 H                    -3.433     1.80703  -0.81661 
 

 GradGradGradGradGradGradGradGradGradGradGradGradGradGradGradGradGradGrad
 Berny optimization.
 Initialization pass.
 Trust Radius=3.00D-01 FncErr=1.00D-07 GrdErr=1.00D-07 EigMax=2.50D+02 EigMin=1.00D-04
 Number of steps in this run=      2 maximum allowed number of steps=      2.
 GradGradGradGradGradGradGradGradGradGradGradGradGradGradGradGradGradGrad

                          Input orientation:                          
 ---------------------------------------------------------------------
 Center     Atomic      Atomic             Coordinates (Angstroms)
 Number     Number       Type             X           Y           Z
 ---------------------------------------------------------------------
      1          6           0       -0.932494    0.125858    0.000000
      2          6           0        0.462666    0.125858    0.000000
      3          6           0        1.160204    1.333609    0.000000
      4          6           0        0.462550    2.542118   -0.001199
      5          6           0       -0.932275    2.542040   -0.001678
      6          6           0       -1.629876    1.333834   -0.000682
      7          1           0       -1.482253   -0.826459    0.000450
      8          1           0        1.012174   -0.826655    0.001315
      9          1           0        1.012750    3.494261   -0.001258
     10          1           0       -1.482397    3.494321   -0.002631
     11          7           0        2.630203    1.333716    0.000848
     12          1           0        2.963100    0.862686    0.817739
     13          1           0        2.964041    0.861986   -0.815255
     14          7           0       -3.099876    1.334079   -0.000923
     15          1           0       -3.433265    1.804049    0.816378
     16          1           0       -3.432997    1.807027   -0.816613
 ---------------------------------------------------------------------
                    Distance matrix (angstroms):
                    1          2          3          4          5
     1  C    0.000000
     2  C    1.395160   0.000000
     3  C    2.416205   1.394712   0.000000
     4  C    2.790065   2.416260   1.395427   0.000000
     5  C    2.416183   2.789946   2.416356   1.394825   0.000000
     6  C    1.394829   2.416183   2.790080   2.416236   1.395138
     7  H    1.099610   2.165553   3.412986   3.889675   3.413102
     8  H    2.165414   1.099655   2.165330   3.413316   3.889601
     9  H    3.889745   3.413024   2.165678   1.099680   2.165606
    10  H    3.413055   3.889707   3.413506   2.165528   1.099761
    11  N    3.761879   2.481359   1.470000   2.481726   3.761822
    12  H    4.048119   2.731992   2.034920   3.121522   4.320373
    13  H    4.048396   2.731923   2.034920   3.121377   4.320390
    14  N    2.481399   3.761848   4.260080   3.761680   2.481464
    15  H    3.120361   4.319846   4.689109   4.048524   2.732910
    16  H    3.121810   4.320807   4.689187   4.047288   2.730929
                    6          7          8          9         10
     6  C    0.000000
     7  H    2.165331   0.000000
     8  H    3.412938   2.494427   0.000000
     9  H    3.413344   4.989355   4.320917   0.000000
    10  H    2.165516   4.320781   4.989362   2.495147   0.000000
    11  N    4.260080   4.645283   2.699115   2.698910   4.645612
    12  H    4.689053   4.825177   2.706757   3.376360   5.230770
    13  H    4.689376   4.825532   2.707043   3.376241   5.230714
    14  N    1.470000   2.699005   4.645183   4.645436   2.698683
    15  H    2.034920   3.375168   5.229422   4.826219   2.708077
    16  H    2.034920   3.377609   5.231140   4.824544   2.704509
                   11         12         13         14         15
    11  N    0.000000
    12  H    1.000000   0.000000
    13  H    1.000000   1.632993   0.000000
    14  N    5.730080   6.136130   6.136539   0.000000
    15  H    6.136119   6.465265   6.668976   1.000000   0.000000
    16  H    6.136340   6.668803   6.466468   1.000000   1.632993
                   16
    16  H    0.000000
 Symmetry turned off by external request.
 Stoichiometry    C6H8N2
 Framework group  C1[X(C6H8N2)]
 Deg. of freedom    42
 Full point group                 C1      NOp   1
 Rotational constants (GHZ):           5.4746041           1.4427494           1.1558730
 Standard basis: STO-3G (5D, 7F)
    48 basis functions,   144 primitive gaussians,    48 cartesian basis functions
    29 alpha electrons       29 beta electrons
       nuclear repulsion energy       342.1284489380 Hartrees.
 NAtoms=   16 NActive=   16 NUniq=   16 SFac= 1.00D+00 NAtFMM=   60 NAOKFM=F Big=F
 Integral buffers will be    131072 words long.
 Raffenetti 2 integral format.
 Two-electron integral symmetry is turned off.
 One-electron integrals computed using PRISM.
 NBasis=    48 RedAO= T EigKep=  1.72D-01  NBF=    48
 NBsUse=    48 1.00D-06 EigRej= -1.00D+00 NBFU=    48
 ExpMin= 1.69D-01 ExpMax= 9.91D+01 ExpMxC= 9.91D+01 IAcc=3 IRadAn=         5 AccDes= 0.00D+00
 Harris functional with IExCor=  402 and IRadAn=       5 diagonalized for initial guess.
 HarFok:  IExCor=  402 AccDes= 0.00D+00 IRadAn=         5 IDoV= 1 UseB2=F ITyADJ=14
 ICtDFT=  3500011 ScaDFX=  1.000000  1.000000  1.000000  1.000000
 FoFCou: FMM=F IPFlag=           0 FMFlag=      100000 FMFlg1=           0
         NFxFlg=           0 DoJE=T BraDBF=F KetDBF=T FulRan=T
         wScrn=  0.000000 ICntrl=       500 IOpCl=  0 I1Cent=   200000004 NGrid=           0
         NMat0=    1 NMatS0=      1 NMatT0=    0 NMatD0=    1 NMtDS0=    0 NMtDT0=    0
 Symmetry not used in FoFCou.
 Keep J ints in memory in canonical form, NReq=1566317.
 Requested convergence on RMS density matrix=1.00D-08 within  32 cycles.
 Requested convergence on MAX density matrix=1.00D-06.
 Requested convergence on             energy=1.00D-06.
 No special actions if energy rises.
 Integral accuracy reduced to 1.0D-05 until final iterations.
 Initial convergence to 1.0D-05 achieved.  Increase integral accuracy.
 SCF Done:  E(RB-LYP) =  -338.410940092     A.U. after   12 cycles
            NFock= 12  Conv=0.81D-08     -V/T= 2.0159
 QCSCF skips out because SCF is already converged.

 **********************************************************************

            Population analysis using the SCF Density.

 **********************************************************************

 Alpha  occ. eigenvalues --  -13.79471 -13.79469  -9.77163  -9.77156  -9.74180
 Alpha  occ. eigenvalues --   -9.74177  -9.74080  -9.74070  -0.76684  -0.75406
 Alpha  occ. eigenvalues --   -0.69207  -0.62267  -0.58680  -0.49674  -0.47329
 Alpha  occ. eigenvalues --   -0.40533  -0.38546  -0.38301  -0.36483  -0.34956
 Alpha  occ. eigenvalues --   -0.32284  -0.31953  -0.26284  -0.25648  -0.25470
 Alpha  occ. eigenvalues --   -0.15882  -0.15028  -0.07646  -0.07461
 Alpha virt. eigenvalues --    0.06168   0.06607   0.20836   0.27290   0.29841
 Alpha virt. eigenvalues --    0.34124   0.35932   0.37752   0.40365   0.40766
 Alpha virt. eigenvalues --    0.43202   0.43617   0.43879   0.51617   0.53822
 Alpha virt. eigenvalues --    0.54798   0.56600   0.70684   0.74468
     Molecular Orbital Coefficients:
                           1         2         3         4         5
                           O         O         O         O         O
     Eigenvalues --   -13.79471 -13.79469  -9.77163  -9.77156  -9.74180
   1 1   C  1S          0.00001  -0.00001   0.00926  -0.01070  -0.58047
   2        2S         -0.00001   0.00023   0.00764  -0.00760  -0.03057
   3        2PX         0.00005  -0.00039  -0.00203   0.00255  -0.00289
   4        2PY        -0.00005  -0.00024   0.00405  -0.00434  -0.00108
   5        2PZ        -0.00000   0.00000  -0.00000   0.00000   0.00000
   6 2   C  1S         -0.00002   0.00000  -0.01004  -0.00965   0.32836
   7        2S          0.00037   0.00005  -0.00833  -0.00689   0.02145
   8        2PX         0.00051   0.00006  -0.00227  -0.00237  -0.00432
   9        2PY        -0.00006  -0.00007  -0.00444  -0.00396   0.00068
  10        2PZ         0.00000   0.00000   0.00000   0.00000   0.00000
  11 3   C  1S          0.00058   0.00007   0.73153   0.66716   0.01487
  12        2S         -0.00627  -0.00070   0.03366   0.03047  -0.00960
  13        2PX        -0.00592  -0.00062  -0.00176  -0.00125   0.00344
  14        2PY         0.00026   0.00003  -0.00006  -0.00005  -0.00178
  15        2PZ        -0.00000  -0.00000  -0.00000  -0.00000   0.00000
  16 4   C  1S         -0.00001   0.00000  -0.01023  -0.00983   0.63595
  17        2S          0.00022   0.00004  -0.00829  -0.00686   0.03346
  18        2PX         0.00039   0.00004  -0.00226  -0.00235  -0.00316
  19        2PY         0.00022   0.00010   0.00443   0.00395  -0.00115
  20        2PZ         0.00000   0.00000  -0.00000  -0.00000   0.00000
  21 5   C  1S          0.00001  -0.00002   0.00913  -0.01055  -0.36010
  22        2S         -0.00004   0.00037   0.00765  -0.00762  -0.02349
  23        2PX         0.00005  -0.00051  -0.00204   0.00256  -0.00473
  24        2PY         0.00005   0.00007  -0.00406   0.00435   0.00073
  25        2PZ         0.00000  -0.00000   0.00000  -0.00000  -0.00000
  26 6   C  1S         -0.00006   0.00058  -0.66713   0.73156  -0.01446
  27        2S          0.00071  -0.00627  -0.03072   0.03344   0.00939
  28        2PX        -0.00071   0.00591  -0.00163   0.00141   0.00336
  29        2PY         0.00003  -0.00026  -0.00004   0.00005  -0.00126
  30        2PZ        -0.00000   0.00000   0.00000  -0.00000   0.00000
  31 7   H  1S          0.00001  -0.00029  -0.00024   0.00012   0.00560
  32 8   H  1S         -0.00006  -0.00002   0.00027   0.00011  -0.00330
  33 9   H  1S         -0.00028  -0.00005   0.00025   0.00009  -0.00614
  34 10  H  1S         -0.00001  -0.00006  -0.00026   0.00013   0.00362
  35 11  N  1S          0.98595   0.11032   0.00058   0.00054  -0.00002
  36        2S          0.03810   0.00425  -0.00470  -0.00436   0.00035
  37        2PX        -0.00131  -0.00014   0.00390   0.00361  -0.00016
  38        2PY        -0.00509  -0.00057  -0.00021  -0.00019  -0.00001
  39        2PZ         0.00000   0.00000   0.00000   0.00000  -0.00000
  40 12  H  1S         -0.00892  -0.00100  -0.00057  -0.00052  -0.00006
  41 13  H  1S         -0.00892  -0.00100  -0.00057  -0.00052  -0.00006
  42 14  N  1S         -0.11032   0.98595  -0.00053   0.00059   0.00002
  43        2S         -0.00428   0.03810   0.00428  -0.00477  -0.00034
  44        2PX        -0.00016   0.00131   0.00355  -0.00396  -0.00016
  45        2PY        -0.00057   0.00509  -0.00020   0.00021  -0.00002
  46        2PZ        -0.00000   0.00001  -0.00000   0.00000   0.00000
  47 15  H  1S          0.00100  -0.00892   0.00052  -0.00057   0.00007
  48 16  H  1S          0.00100  -0.00892   0.00052  -0.00057   0.00007
                           6         7         8         9        10
                           O         O         O         O         O
     Eigenvalues --    -9.74177  -9.74080  -9.74070  -0.76684  -0.75406
   1 1   C  1S          0.62743  -0.34378   0.36271  -0.05687  -0.01909
   2        2S          0.03287  -0.00975   0.01082   0.13994   0.04780
   3        2PX         0.00308   0.00377  -0.00380   0.00565  -0.02974
   4        2PY         0.00085  -0.00046   0.00038   0.03840   0.02375
   5        2PZ        -0.00000   0.00000  -0.00000  -0.00002  -0.00001
   6 2   C  1S         -0.37498  -0.60497   0.60491  -0.06146   0.02781
   7        2S         -0.02370  -0.02472   0.02450   0.14968  -0.06816
   8        2PX         0.00455  -0.00176   0.00201   0.00165  -0.03320
   9        2PY        -0.00055  -0.00093   0.00068   0.03887  -0.02444
  10        2PZ        -0.00000  -0.00000   0.00000   0.00001  -0.00001
  11 3   C  1S          0.00334  -0.00383   0.01549  -0.09650   0.07961
  12        2S         -0.00175   0.00258  -0.00880   0.23466  -0.19420
  13        2PX         0.00065  -0.00092   0.00321   0.01821  -0.05689
  14        2PY        -0.00563  -0.00549   0.00148  -0.01060   0.01337
  15        2PZ         0.00000   0.00000   0.00000   0.00001  -0.00003
  16 4   C  1S          0.57249   0.34751   0.35696  -0.05684   0.01903
  17        2S          0.02996   0.00983   0.01062   0.13986  -0.04766
  18        2PX        -0.00280   0.00383   0.00375  -0.00568  -0.02972
  19        2PY        -0.00075  -0.00046  -0.00037  -0.03836   0.02370
  20        2PZ         0.00000   0.00000   0.00000   0.00003  -0.00003
  21 5   C  1S         -0.34234   0.61382   0.59724  -0.06142  -0.02782
  22        2S         -0.02160   0.02509   0.02420   0.14961   0.06819
  23        2PX        -0.00414  -0.00177  -0.00198  -0.00162  -0.03316
  24        2PY         0.00048  -0.00093  -0.00066  -0.03885  -0.02443
  25        2PZ        -0.00000   0.00000   0.00000   0.00004   0.00002
  26 6   C  1S          0.00466   0.00406   0.01546  -0.09649  -0.07964
  27        2S         -0.00264  -0.00269  -0.00878   0.23463   0.19428
  28        2PX        -0.00097  -0.00096  -0.00320  -0.01818  -0.05687
  29        2PY         0.00576  -0.00553  -0.00140   0.01053   0.01333
  30        2PZ        -0.00000   0.00000   0.00000  -0.00001  -0.00001
  31 7   H  1S         -0.00608   0.00308  -0.00344   0.02296   0.01035
  32 8   H  1S          0.00369   0.00567  -0.00583   0.02759  -0.01671
  33 9   H  1S         -0.00555  -0.00312  -0.00339   0.02295  -0.01033
  34 10  H  1S          0.00336  -0.00575  -0.00575   0.02758   0.01671
  35 11  N  1S          0.00001   0.00001   0.00000  -0.11658   0.14011
  36        2S         -0.00001  -0.00015   0.00022   0.37780  -0.45592
  37        2PX        -0.00001   0.00003  -0.00003  -0.04437   0.04275
  38        2PY         0.00015   0.00007  -0.00008  -0.08343   0.10319
  39        2PZ        -0.00000   0.00000   0.00000   0.00001  -0.00002
  40 12  H  1S          0.00002   0.00007  -0.00011   0.08025  -0.10053
  41 13  H  1S          0.00002   0.00007  -0.00011   0.08025  -0.10053
  42 14  N  1S          0.00001  -0.00001   0.00000  -0.11655  -0.14012
  43        2S          0.00003   0.00015   0.00021   0.37767   0.45595
  44        2PX         0.00003   0.00003   0.00003   0.04438   0.04279
  45        2PY        -0.00015   0.00008   0.00008   0.08339   0.10318
  46        2PZ         0.00000  -0.00000  -0.00000   0.00016   0.00019
  47 15  H  1S          0.00001  -0.00007  -0.00011   0.08022   0.10053
  48 16  H  1S          0.00001  -0.00007  -0.00011   0.08022   0.10053
                          11        12        13        14        15
                           O         O         O         O         O
     Eigenvalues --    -0.69207  -0.62267  -0.58680  -0.49674  -0.47329
   1 1   C  1S          0.09212   0.12926   0.07346   0.08650   0.07401
   2        2S         -0.23122  -0.34426  -0.20066  -0.24973  -0.22213
   3        2PX        -0.04780  -0.06374   0.09154   0.15130  -0.09214
   4        2PY        -0.04178   0.01081  -0.06768  -0.03158   0.18459
   5        2PZ         0.00002  -0.00002   0.00005   0.00001  -0.00011
   6 2   C  1S          0.08967   0.12724  -0.07820  -0.10795   0.03183
   7        2S         -0.22625  -0.33966   0.21466   0.31494  -0.09761
   8        2PX         0.05073   0.06460   0.08895   0.11500   0.14957
   9        2PY        -0.04017   0.01800   0.06451  -0.03728   0.18662
  10        2PZ        -0.00001  -0.00007   0.00003   0.00013  -0.00009
  11 3   C  1S          0.05032  -0.00569  -0.12384   0.02319  -0.10410
  12        2S         -0.13146   0.01531   0.34550  -0.06913   0.31312
  13        2PX         0.12337   0.00280  -0.09279  -0.00932  -0.01175
  14        2PY        -0.00649   0.13580   0.00022  -0.23588  -0.05244
  15        2PZ         0.00008  -0.00007  -0.00009   0.00012  -0.00001
  16 4   C  1S          0.09208  -0.12932  -0.07332   0.08662   0.07399
  17        2S         -0.23113   0.34446   0.20031  -0.25012  -0.22207
  18        2PX         0.04785  -0.06392   0.09135  -0.15142   0.09207
  19        2PY         0.04174   0.01085  -0.06755   0.03159  -0.18439
  20        2PZ        -0.00002  -0.00000   0.00009  -0.00012   0.00013
  21 5   C  1S          0.08964  -0.12733   0.07802  -0.10803   0.03178
  22        2S         -0.22618   0.33991  -0.21419   0.31521  -0.09741
  23        2PX        -0.05078   0.06475   0.08879  -0.11522  -0.14955
  24        2PY         0.04014   0.01802   0.06444   0.03714  -0.18642
  25        2PZ        -0.00005   0.00002  -0.00003  -0.00007   0.00010
  26 6   C  1S          0.05032   0.00575   0.12384   0.02304  -0.10411
  27        2S         -0.13147  -0.01545  -0.34549  -0.06862   0.31313
  28        2PX        -0.12340   0.00276  -0.09278   0.00935   0.01176
  29        2PY         0.00663   0.13585   0.00064   0.23592   0.05242
  30        2PZ         0.00001  -0.00010   0.00004  -0.00022  -0.00008
  31 7   H  1S         -0.04070  -0.09001  -0.05426  -0.11355  -0.14348
  32 8   H  1S         -0.03979  -0.09427   0.06006   0.16513  -0.08877
  33 9   H  1S         -0.04067   0.09003   0.05416  -0.11374  -0.14333
  34 10  H  1S         -0.03976   0.09430  -0.05990   0.16523  -0.08853
  35 11  N  1S         -0.09603  -0.00735   0.06476   0.00783   0.02437
  36        2S          0.32033   0.02508  -0.22824  -0.02864  -0.08969
  37        2PX         0.01217  -0.00373  -0.08851   0.02974  -0.13088
  38        2PY        -0.08238   0.01068   0.07982  -0.05239   0.04998
  39        2PZ         0.00004  -0.00001  -0.00009   0.00005  -0.00011
  40 12  H  1S          0.08551   0.00229  -0.09083   0.01424  -0.07291
  41 13  H  1S          0.08551   0.00230  -0.09082   0.01423  -0.07289
  42 14  N  1S         -0.09607   0.00733  -0.06475   0.00789   0.02438
  43        2S          0.32043  -0.02502   0.22820  -0.02888  -0.08972
  44        2PX        -0.01215  -0.00376  -0.08849  -0.02950   0.13088
  45        2PY         0.08242   0.01071   0.07987   0.05228  -0.05001
  46        2PZ         0.00015  -0.00005   0.00015  -0.00023  -0.00016
  47 15  H  1S          0.08555  -0.00231   0.09083   0.01390  -0.07295
  48 16  H  1S          0.08554  -0.00224   0.09080   0.01427  -0.07286
                          16        17        18        19        20
                           O         O         O         O         O
     Eigenvalues --    -0.40533  -0.38546  -0.38301  -0.36483  -0.34956
   1 1   C  1S         -0.00126   0.00013   0.00013   0.06211   0.02362
   2        2S         -0.00825  -0.00043  -0.00043  -0.20875  -0.08044
   3        2PX         0.15763  -0.00040  -0.00044  -0.06664   0.25268
   4        2PY         0.15431   0.00030   0.00029   0.16656  -0.05918
   5        2PZ        -0.00006   0.05731   0.02592  -0.00022   0.00017
   6 2   C  1S          0.00592  -0.00006  -0.00008  -0.04796  -0.02199
   7        2S         -0.03198   0.00019   0.00026   0.16371   0.07916
   8        2PX        -0.16658   0.00062   0.00072   0.20327  -0.18173
   9        2PY         0.16692  -0.00001  -0.00000  -0.08828  -0.27664
  10        2PZ        -0.00017   0.06298  -0.03345   0.00012   0.00018
  11 3   C  1S          0.03721   0.00003   0.00005   0.06131   0.03581
  12        2S         -0.13523  -0.00010  -0.00017  -0.21740  -0.12241
  13        2PX        -0.21979  -0.00006   0.00002  -0.11837   0.03283
  14        2PY        -0.00184  -0.00044  -0.00066  -0.12332   0.30145
  15        2PZ        -0.00011   0.14325  -0.12496  -0.00002  -0.00006
  16 4   C  1S         -0.00124  -0.00002  -0.00003  -0.06211  -0.02359
  17        2S         -0.00830   0.00008   0.00009   0.20870   0.08042
  18        2PX        -0.15760  -0.00042  -0.00044  -0.06656   0.25266
  19        2PY        -0.15427   0.00035   0.00032   0.16649  -0.05940
  20        2PZ         0.00002   0.05735  -0.02569  -0.00016   0.00030
  21 5   C  1S          0.00595  -0.00004  -0.00004   0.04795   0.02202
  22        2S         -0.03209   0.00012   0.00014  -0.16370  -0.07919
  23        2PX         0.16660   0.00038   0.00044   0.20329  -0.18164
  24        2PY        -0.16688   0.00021   0.00025  -0.08816  -0.27667
  25        2PZ         0.00021   0.06285   0.03364  -0.00002   0.00043
  26 6   C  1S          0.03720  -0.00009  -0.00008  -0.06131  -0.03583
  27        2S         -0.13521   0.00031   0.00029   0.21738   0.12260
  28        2PX         0.21980  -0.00020  -0.00023  -0.11842   0.03281
  29        2PY         0.00181  -0.00035  -0.00043  -0.12326   0.30142
  30        2PZ         0.00015   0.14286   0.12544  -0.00038   0.00021
  31 7   H  1S         -0.13448  -0.00020  -0.00019  -0.17513  -0.09587
  32 8   H  1S         -0.15926   0.00038   0.00035   0.22067   0.16071
  33 9   H  1S         -0.13448   0.00009   0.00008   0.17504   0.09581
  34 10  H  1S         -0.15930  -0.00004  -0.00002  -0.22066  -0.16064
  35 11  N  1S         -0.01450   0.00004   0.00004   0.01116  -0.01395
  36        2S          0.05687  -0.00014  -0.00015  -0.04871   0.05372
  37        2PX         0.22574  -0.00021   0.00035   0.21064   0.04152
  38        2PY        -0.08973   0.00003  -0.00037  -0.10756   0.06905
  39        2PZ         0.00020   0.39837  -0.40654   0.00024  -0.00014
  40 12  H  1S          0.10651   0.27275  -0.27939   0.08912   0.01267
  41 13  H  1S          0.10648  -0.27273   0.27950   0.08902   0.01286
  42 14  N  1S         -0.01450   0.00000  -0.00000  -0.01116   0.01394
  43        2S          0.05689  -0.00000   0.00002   0.04871  -0.05369
  44        2PX        -0.22571   0.00022   0.00024   0.21060   0.04171
  45        2PY         0.08978  -0.00085  -0.00090  -0.10760   0.06896
  46        2PZ         0.00044   0.39705   0.40782  -0.00135   0.00096
  47 15  H  1S          0.10672   0.27171   0.28019  -0.08988  -0.01220
  48 16  H  1S          0.10626  -0.27195  -0.28045  -0.08826  -0.01347
                          21        22        23        24        25
                           O         O         O         O         O
     Eigenvalues --    -0.32284  -0.31953  -0.26284  -0.25648  -0.25470
   1 1   C  1S         -0.01568  -0.01193   0.00186  -0.00002   0.00022
   2        2S          0.04460   0.03473  -0.01636   0.00014  -0.01261
   3        2PX         0.22350  -0.06761   0.28862   0.00127  -0.11725
   4        2PY         0.28603   0.19819   0.07580  -0.00132   0.27975
   5        2PZ        -0.00014  -0.00007  -0.00085   0.33026   0.00192
   6 2   C  1S         -0.03271   0.01279  -0.01142  -0.00000   0.00498
   7        2S          0.10531  -0.03731   0.04013  -0.00009  -0.00429
   8        2PX        -0.19717   0.11328  -0.28822  -0.00121   0.07976
   9        2PY         0.20762  -0.14256  -0.10228   0.00159  -0.25141
  10        2PZ        -0.00018   0.00021  -0.00074   0.33458   0.00231
  11 3   C  1S          0.01187   0.01755   0.01163   0.00000  -0.00163
  12        2S         -0.04066  -0.04173  -0.01902   0.00009  -0.00390
  13        2PX         0.01291   0.34343   0.22337   0.00076  -0.09569
  14        2PY        -0.07768  -0.08249   0.09663  -0.00158   0.31363
  15        2PZ         0.00006   0.00033  -0.00046   0.30573   0.00167
  16 4   C  1S          0.01565   0.01194   0.00190   0.00001   0.00018
  17        2S         -0.04450  -0.03485  -0.01656   0.00000  -0.01237
  18        2PX         0.22396  -0.06770  -0.28830  -0.00161   0.11709
  19        2PY         0.28609   0.19774  -0.07543   0.00167  -0.28026
  20        2PZ        -0.00005  -0.00008  -0.00081   0.33012   0.00214
  21 5   C  1S          0.03271  -0.01280  -0.01135  -0.00002   0.00497
  22        2S         -0.10527   0.03738   0.03980  -0.00002  -0.00428
  23        2PX        -0.19763   0.11328   0.28783   0.00115  -0.07981
  24        2PY         0.20778  -0.14205   0.10287  -0.00083   0.25151
  25        2PZ        -0.00020   0.00017  -0.00082   0.33451   0.00160
  26 6   C  1S         -0.01185  -0.01755   0.01165   0.00004  -0.00155
  27        2S          0.04051   0.04169  -0.01909  -0.00001  -0.00426
  28        2PX         0.01336   0.34339  -0.22359  -0.00123   0.09516
  29        2PY        -0.07773  -0.08287  -0.09677   0.00178  -0.31350
  30        2PZ         0.00012   0.00005  -0.00077   0.30580   0.00194
  31 7   H  1S         -0.28071  -0.09709  -0.22630   0.00073  -0.19973
  32 8   H  1S         -0.19433   0.13428  -0.04493  -0.00193   0.29529
  33 9   H  1S          0.28098   0.09665  -0.22597   0.00062  -0.20007
  34 10  H  1S          0.19468  -0.13391  -0.04451  -0.00180   0.29539
  35 11  N  1S         -0.00321  -0.00746  -0.03120  -0.00006  -0.00072
  36        2S          0.01367   0.03621   0.14127   0.00030  -0.00279
  37        2PX         0.01196  -0.31384  -0.26486  -0.00120   0.12727
  38        2PY         0.01325   0.08024   0.11682  -0.00012   0.04754
  39        2PZ         0.00000  -0.00030   0.00004  -0.12747  -0.00072
  40 12  H  1S          0.00075  -0.12148  -0.09832  -0.11378   0.03976
  41 13  H  1S          0.00075  -0.12134  -0.09874   0.11292   0.04113
  42 14  N  1S          0.00324   0.00745  -0.03121  -0.00004  -0.00074
  43        2S         -0.01381  -0.03617   0.14134   0.00024  -0.00268
  44        2PX         0.01146  -0.31382   0.26502   0.00155  -0.12690
  45        2PY         0.01341   0.08028  -0.11696   0.00046  -0.04759
  46        2PZ         0.00019  -0.00020   0.00006  -0.12751  -0.00094
  47 15  H  1S         -0.00045   0.12120  -0.09837  -0.11389   0.03950
  48 16  H  1S         -0.00065   0.12162  -0.09882   0.11288   0.04112
                          26        27        28        29        30
                           O         O         O         O         V
     Eigenvalues --    -0.15882  -0.15028  -0.07646  -0.07461   0.06168
   1 1   C  1S          0.00001   0.00005   0.02734  -0.00771  -0.00006
   2        2S         -0.00002  -0.00021  -0.12023   0.03766   0.00030
   3        2PX        -0.00011   0.00006  -0.00552  -0.09966   0.00005
   4        2PY        -0.00013  -0.00034  -0.07051   0.05352   0.00006
   5        2PZ        -0.43302  -0.30413   0.00081  -0.00074  -0.16178
   6 2   C  1S         -0.00006   0.00002  -0.02820  -0.01738   0.00010
   7        2S          0.00027  -0.00008   0.12283   0.07725  -0.00050
   8        2PX         0.00023  -0.00010   0.05014   0.09183  -0.00022
   9        2PY        -0.00035   0.00021   0.09625   0.07710   0.00048
  10        2PZ        -0.48413   0.22574  -0.00010   0.00006   0.62579
  11 3   C  1S         -0.00000  -0.00003   0.01081   0.00994  -0.00000
  12        2S          0.00000   0.00012  -0.04248  -0.03749   0.00000
  13        2PX         0.00002  -0.00040  -0.06445  -0.06445   0.00026
  14        2PY         0.00007   0.00017  -0.03083  -0.00983  -0.00029
  15        2PZ        -0.04159   0.51816  -0.00078   0.00078  -0.47148
  16 4   C  1S          0.00002   0.00004   0.02741   0.00748  -0.00003
  17        2S         -0.00010  -0.00014  -0.12060  -0.03667   0.00015
  18        2PX        -0.00024   0.00001   0.00462  -0.09972   0.00002
  19        2PY         0.00018   0.00023   0.07101   0.05299  -0.00008
  20        2PZ         0.43332   0.30384  -0.00018   0.00006  -0.16226
  21 5   C  1S          0.00001  -0.00006  -0.02807   0.01761   0.00003
  22        2S         -0.00004   0.00025   0.12225  -0.07830  -0.00016
  23        2PX        -0.00008  -0.00020  -0.04936   0.09229  -0.00012
  24        2PY         0.00053  -0.00044  -0.09564   0.07796   0.00069
  25        2PZ         0.48439  -0.22528   0.00069  -0.00074   0.62566
  26 6   C  1S         -0.00000   0.00005   0.01072  -0.01005   0.00001
  27        2S         -0.00000  -0.00022  -0.04208   0.03786  -0.00009
  28        2PX         0.00002   0.00020   0.06394  -0.06499  -0.00000
  29        2PY        -0.00011  -0.00022   0.03073  -0.01009  -0.00021
  30        2PZ         0.04129  -0.51813   0.00022  -0.00025  -0.47112
  31 7   H  1S         -0.00003   0.00013   0.06452   0.01667  -0.00006
  32 8   H  1S          0.00002  -0.00002  -0.02422   0.02199   0.00027
  33 9   H  1S         -0.00009   0.00019   0.06442  -0.01724  -0.00017
  34 10  H  1S          0.00011  -0.00001  -0.02448  -0.02181  -0.00003
  35 11  N  1S         -0.00000   0.00002  -0.06275  -0.06341  -0.00001
  36        2S          0.00001  -0.00007   0.29836   0.30191   0.00004
  37        2PX         0.00001   0.00014   0.21230   0.20284   0.00003
  38        2PY         0.00004  -0.00009   0.59405   0.59275   0.00007
  39        2PZ         0.01924  -0.09499  -0.00005  -0.00022  -0.01190
  40 12  H  1S          0.00916  -0.12087  -0.07154  -0.07373   0.10086
  41 13  H  1S         -0.00916   0.12093  -0.07185  -0.07340  -0.10090
  42 14  N  1S         -0.00000  -0.00013  -0.06221   0.06394   0.00005
  43        2S          0.00001   0.00058   0.29575  -0.30443  -0.00026
  44        2PX        -0.00006  -0.00045  -0.21078   0.20476   0.00021
  45        2PY         0.00004  -0.00133  -0.58895   0.59771   0.00062
  46        2PZ        -0.01921   0.09497  -0.00113   0.00113  -0.01191
  47 15  H  1S         -0.00910   0.12084  -0.07108   0.07420   0.10091
  48 16  H  1S          0.00910  -0.12096  -0.07102   0.07414  -0.10070
                          31        32        33        34        35
                           V         V         V         V         V
     Eigenvalues --     0.06607   0.20836   0.27290   0.29841   0.34124
   1 1   C  1S         -0.00003  -0.00002   0.03450  -0.02692   0.00661
   2        2S          0.00018   0.00015  -0.20950   0.15035  -0.04651
   3        2PX        -0.00002  -0.00030   0.07722   0.24054  -0.02988
   4        2PY         0.00038   0.00031   0.24894   0.13233   0.38625
   5        2PZ         0.63718   0.51851   0.00020  -0.00002  -0.00015
   6 2   C  1S         -0.00003  -0.00011   0.04296   0.02644   0.03970
   7        2S          0.00015   0.00062  -0.26024  -0.14584  -0.24356
   8        2PX         0.00016   0.00028  -0.07921   0.24806  -0.20314
   9        2PY        -0.00010  -0.00054   0.24741  -0.01278   0.47337
  10        2PZ        -0.18580  -0.51044  -0.00063  -0.00003  -0.00058
  11 3   C  1S          0.00003  -0.00001   0.07432  -0.06979   0.00083
  12        2S         -0.00014   0.00006  -0.41297   0.37735  -0.00106
  13        2PX         0.00032  -0.00019  -0.36970   0.50825  -0.16766
  14        2PY        -0.00012   0.00038  -0.01664   0.05779   0.27789
  15        2PZ        -0.45362   0.50792   0.00011   0.00034  -0.00022
  16 4   C  1S          0.00002  -0.00007   0.03447   0.02680  -0.00608
  17        2S         -0.00010   0.00041  -0.20932  -0.14972   0.04339
  18        2PX        -0.00036   0.00021  -0.07729   0.23978  -0.03048
  19        2PY         0.00032  -0.00009  -0.24916   0.13214   0.38721
  20        2PZ         0.63724  -0.51826  -0.00024  -0.00004  -0.00009
  21 5   C  1S         -0.00001   0.00001   0.04300  -0.02623  -0.03956
  22        2S          0.00005  -0.00007  -0.26048   0.14465   0.24272
  23        2PX         0.00011  -0.00029   0.07950   0.24756  -0.20194
  24        2PY        -0.00014   0.00065  -0.24761  -0.01227   0.47398
  25        2PZ        -0.18643   0.51037   0.00054   0.00010  -0.00067
  26 6   C  1S          0.00003  -0.00002   0.07428   0.06972  -0.00129
  27        2S         -0.00017   0.00010  -0.41277  -0.37692   0.00368
  28        2PX        -0.00004  -0.00013   0.36976   0.50848  -0.16605
  29        2PY        -0.00034  -0.00021   0.01625   0.05818   0.27722
  30        2PZ        -0.45384  -0.50810  -0.00025  -0.00002  -0.00004
  31 7   H  1S         -0.00009  -0.00022   0.42473   0.18312   0.34693
  32 8   H  1S         -0.00011  -0.00049   0.44991  -0.08364   0.63273
  33 9   H  1S          0.00004  -0.00042   0.42483  -0.18296  -0.34567
  34 10  H  1S         -0.00003  -0.00027   0.45035   0.08374  -0.63212
  35 11  N  1S         -0.00000   0.00002  -0.07732   0.11187   0.02396
  36        2S          0.00001  -0.00012   0.48689  -0.71548  -0.17075
  37        2PX        -0.00006   0.00004  -0.37934   0.37632  -0.24923
  38        2PY        -0.00004   0.00002  -0.09089   0.17398   0.09444
  39        2PZ         0.01389   0.07465  -0.00011   0.00017  -0.00022
  40 12  H  1S          0.08429  -0.13939  -0.15619   0.29165   0.21143
  41 13  H  1S         -0.08430   0.13948  -0.15598   0.29171   0.21138
  42 14  N  1S          0.00006   0.00008  -0.07728  -0.11190  -0.02387
  43        2S         -0.00033  -0.00046   0.48665   0.71568   0.17010
  44        2PX         0.00031  -0.00006   0.37944   0.37624  -0.24881
  45        2PY         0.00055   0.00037   0.09073   0.17381   0.09433
  46        2PZ         0.01392  -0.07466   0.00033   0.00030  -0.00047
  47 15  H  1S          0.08451   0.13968  -0.15592  -0.29175  -0.21030
  48 16  H  1S         -0.08416  -0.13926  -0.15589  -0.29192  -0.21134
                          36        37        38        39        40
                           V         V         V         V         V
     Eigenvalues --     0.35932   0.37752   0.40365   0.40766   0.43202
   1 1   C  1S         -0.06534  -0.08274  -0.08477   0.02904  -0.14943
   2        2S          0.40024   0.50469   0.51271  -0.18451   0.94851
   3        2PX        -0.15597  -0.28127  -0.02008   0.33230   0.08648
   4        2PY         0.01032  -0.27105  -0.01583  -0.12803  -0.10726
   5        2PZ        -0.00007   0.00022   0.00005   0.00023  -0.00012
   6 2   C  1S         -0.02406   0.03987   0.11040   0.11849   0.10786
   7        2S          0.14734  -0.23137  -0.68196  -0.74751  -0.68296
   8        2PX         0.20077  -0.10297  -0.13540  -0.24387   0.23538
   9        2PY        -0.10027  -0.13498   0.08515  -0.10413   0.22461
  10        2PZ         0.00024  -0.00008  -0.00051  -0.00045  -0.00030
  11 3   C  1S          0.04357  -0.03935  -0.10014  -0.13719   0.04038
  12        2S         -0.25861   0.23930   0.59620   0.84128  -0.25092
  13        2PX        -0.01378  -0.20050   0.02780   0.02445   0.03625
  14        2PY        -0.09124  -0.07224  -0.04939  -0.15092  -0.35248
  15        2PZ         0.00003  -0.00007   0.00011   0.00005   0.00009
  16 4   C  1S         -0.06560   0.08284   0.08525   0.02973  -0.14895
  17        2S          0.40180  -0.50531  -0.51567  -0.18880   0.94552
  18        2PX         0.15688  -0.27980  -0.01875  -0.33380  -0.08599
  19        2PY        -0.00928  -0.27152  -0.01632   0.12665   0.10639
  20        2PZ         0.00022  -0.00015  -0.00015  -0.00018   0.00024
  21 5   C  1S         -0.02407  -0.04052  -0.11126   0.11817   0.10712
  22        2S          0.14746   0.23535   0.68736  -0.74553  -0.67833
  23        2PX        -0.20111  -0.10338  -0.13576   0.24413  -0.23605
  24        2PY         0.10162  -0.13549   0.08540   0.10368  -0.22322
  25        2PZ        -0.00026   0.00022  -0.00003  -0.00019  -0.00030
  26 6   C  1S          0.04339   0.03979   0.10050  -0.13676   0.04068
  27        2S         -0.25761  -0.24199  -0.59837   0.83873  -0.25275
  28        2PX         0.01374  -0.20089   0.02831  -0.02510  -0.03730
  29        2PY         0.09153  -0.07355  -0.05179   0.15150   0.35172
  30        2PZ        -0.00002  -0.00012   0.00021  -0.00010   0.00038
  31 7   H  1S         -0.26565  -0.62403  -0.29961   0.13140  -0.49506
  32 8   H  1S         -0.21754   0.05374   0.48517   0.38936   0.38167
  33 9   H  1S         -0.26785   0.62407   0.30087   0.13548  -0.49298
  34 10  H  1S         -0.21883  -0.05548  -0.48809   0.38879   0.37790
  35 11  N  1S         -0.10532   0.05998  -0.02770  -0.00253   0.01164
  36        2S          0.71580  -0.41742   0.21347   0.04017  -0.09264
  37        2PX         0.21221  -0.26291   0.41781   0.43106  -0.12414
  38        2PY        -0.34406   0.27532  -0.21901  -0.11874   0.18208
  39        2PZ         0.00029  -0.00024   0.00045   0.00025   0.00075
  40 12  H  1S         -0.54539   0.38563  -0.33083  -0.22170   0.12574
  41 13  H  1S         -0.54537   0.38569  -0.33061  -0.22179   0.12720
  42 14  N  1S         -0.10524  -0.06020   0.02760  -0.00245   0.01168
  43        2S          0.71526   0.41893  -0.21281   0.03952  -0.09297
  44        2PX        -0.21244  -0.26260   0.41891  -0.43006   0.12421
  45        2PY         0.34394   0.27635  -0.21854   0.11811  -0.18213
  46        2PZ         0.00052   0.00077  -0.00041  -0.00130  -0.00248
  47 15  H  1S         -0.54508  -0.38679   0.33080  -0.21963   0.12859
  48 16  H  1S         -0.54527  -0.38631   0.33076  -0.22209   0.12488
                          41        42        43        44        45
                           V         V         V         V         V
     Eigenvalues --     0.43617   0.43879   0.51617   0.53822   0.54798
   1 1   C  1S         -0.00002  -0.00020  -0.02082  -0.04082  -0.06018
   2        2S          0.00009   0.00124   0.14341   0.28523   0.41869
   3        2PX         0.00054   0.00039   0.01659   0.50644   0.58050
   4        2PY        -0.00006  -0.00015   0.52882   0.48282  -0.38442
   5        2PZ         0.02177   0.07852  -0.00026  -0.00027   0.00030
   6 2   C  1S          0.00022   0.00034  -0.02597   0.04505   0.04396
   7        2S         -0.00144  -0.00214   0.17565  -0.31219  -0.30388
   8        2PX        -0.00047  -0.00029   0.01400   0.50161   0.65517
   9        2PY         0.00056   0.00063   0.43340  -0.52945   0.41425
  10        2PZ         0.05640  -0.09332  -0.00027   0.00042  -0.00026
  11 3   C  1S         -0.00010  -0.00008   0.05645   0.00035   0.08798
  12        2S          0.00063   0.00054  -0.41401   0.00211  -0.61033
  13        2PX         0.00043   0.00022   0.77449  -0.05318  -0.03638
  14        2PY        -0.00055  -0.00083  -0.01279  -0.24746   0.08668
  15        2PZ        -0.12914   0.15921   0.00061   0.00008   0.00024
  16 4   C  1S         -0.00019  -0.00036  -0.02147  -0.03879   0.06183
  17        2S          0.00119   0.00231   0.14774   0.27120  -0.43035
  18        2PX        -0.00031  -0.00044  -0.01356  -0.48590   0.59871
  19        2PY         0.00066   0.00088  -0.52916  -0.49674  -0.36787
  20        2PZ         0.02200  -0.07839   0.00024   0.00009   0.00033
  21 5   C  1S          0.00015   0.00027  -0.02659   0.04333  -0.04576
  22        2S         -0.00092  -0.00169   0.17983  -0.30043   0.31651
  23        2PX        -0.00038  -0.00079  -0.01687  -0.47968   0.67319
  24        2PY        -0.00045  -0.00079  -0.43301   0.54358   0.39589
  25        2PZ         0.05604   0.09348   0.00040  -0.00059  -0.00001
  26 6   C  1S         -0.00008   0.00002   0.05636  -0.00279  -0.08793
  27        2S          0.00042  -0.00018  -0.41351   0.02359   0.60983
  28        2PX        -0.00041  -0.00032  -0.77442   0.05102  -0.03843
  29        2PY        -0.00011   0.00030   0.00739   0.24892   0.07772
  30        2PZ        -0.12857  -0.15967   0.00004  -0.00020  -0.00034
  31 7   H  1S          0.00009  -0.00061   0.30348   0.40456  -0.18917
  32 8   H  1S          0.00123   0.00164   0.20951  -0.42004   0.13700
  33 9   H  1S         -0.00091  -0.00154   0.30072   0.41128   0.17564
  34 10  H  1S          0.00048   0.00092   0.20648  -0.42543  -0.12273
  35 11  N  1S          0.00003   0.00004   0.03008   0.00462  -0.02191
  36        2S         -0.00019  -0.00026  -0.19384  -0.03783   0.14908
  37        2PX         0.00004   0.00080   0.32489  -0.05284  -0.16819
  38        2PY         0.00038  -0.00010  -0.03886   0.10038  -0.01700
  39        2PZ         0.76746  -0.76089   0.00011  -0.00013  -0.00026
  40 12  H  1S         -0.61049   0.60145  -0.04775   0.05750  -0.01424
  41 13  H  1S          0.61029  -0.60142  -0.04786   0.05739  -0.01447
  42 14  N  1S          0.00001   0.00001   0.03001   0.00543   0.02177
  43        2S         -0.00004  -0.00006  -0.19325  -0.04333  -0.14788
  44        2PX        -0.00066  -0.00032  -0.32529   0.04623  -0.16995
  45        2PY        -0.00118  -0.00141   0.04027  -0.10058  -0.01341
  46        2PZ         0.76473   0.76363  -0.00044   0.00054   0.00064
  47 15  H  1S         -0.60847  -0.60366  -0.04808   0.05727   0.01189
  48 16  H  1S          0.60799   0.60356  -0.04884   0.05825   0.01301
                          46        47        48
                           V         V         V
     Eigenvalues --     0.56600   0.70684   0.74468
   1 1   C  1S         -0.08022  -0.00460   0.06531
   2        2S          0.56661   0.03400  -0.48280
   3        2PX        -0.43118  -0.63735  -0.34506
   4        2PY         0.22556   0.38629  -0.58360
   5        2PZ        -0.00023  -0.00012   0.00033
   6 2   C  1S         -0.08055   0.00317  -0.06723
   7        2S          0.57329  -0.02471   0.49689
   8        2PX         0.32299  -0.62938  -0.33637
   9        2PY         0.13588  -0.38963   0.58499
  10        2PZ         0.00036  -0.00004  -0.00033
  11 3   C  1S         -0.01485   0.00267   0.06742
  12        2S          0.09640  -0.01502  -0.51600
  13        2PX         0.00904  -0.00725   0.65229
  14        2PY         0.85576  -0.78238   0.01403
  15        2PZ        -0.00049   0.00034   0.00044
  16 4   C  1S          0.07971  -0.00519  -0.06522
  17        2S         -0.56282   0.03798   0.48210
  18        2PX        -0.43193   0.63240  -0.35224
  19        2PY         0.22100  -0.39219  -0.57874
  20        2PZ        -0.00041   0.00062   0.00023
  21 5   C  1S          0.08031   0.00392   0.06719
  22        2S         -0.57156  -0.02996  -0.49655
  23        2PX         0.32046   0.62519  -0.34348
  24        2PY         0.13276   0.39603   0.58037
  25        2PZ        -0.00010  -0.00022  -0.00059
  26 6   C  1S          0.01564   0.00212  -0.06748
  27        2S         -0.10226  -0.01113   0.51643
  28        2PX         0.00337   0.01443   0.65238
  29        2PY         0.85580   0.78332   0.00496
  30        2PZ        -0.00059  -0.00061  -0.00003
  31 7   H  1S         -0.21801  -0.00352  -0.26385
  32 8   H  1S         -0.22686  -0.00611   0.25506
  33 9   H  1S          0.21991  -0.00019   0.26368
  34 10  H  1S          0.22734  -0.00900  -0.25485
  35 11  N  1S         -0.00663   0.00453   0.02059
  36        2S          0.05561  -0.03675  -0.14562
  37        2PX         0.06236  -0.02276   0.16090
  38        2PY        -0.18442   0.11707  -0.00804
  39        2PZ         0.00015  -0.00004   0.00008
  40 12  H  1S         -0.07905   0.04327  -0.00216
  41 13  H  1S         -0.07903   0.04331  -0.00216
  42 14  N  1S          0.00680   0.00427  -0.02064
  43        2S         -0.05672  -0.03493   0.14599
  44        2PX         0.06082   0.02490   0.16069
  45        2PY        -0.18438  -0.11731  -0.00680
  46        2PZ         0.00062   0.00035   0.00011
  47 15  H  1S          0.07835   0.04307   0.00165
  48 16  H  1S          0.07949   0.04370   0.00180
     Density Matrix:
                           1         2         3         4         5
   1 1   C  1S          2.06664
   2        2S         -0.20248   0.83555
   3        2PX         0.00310  -0.01934   0.60351
   4        2PY         0.00436  -0.02574   0.01150   0.62318
   5        2PZ         0.00000  -0.00003   0.00010  -0.00001   0.78607
   6 2   C  1S          0.02532  -0.06515  -0.11655  -0.00134   0.00005
   7        2S         -0.06481   0.07323   0.29026   0.01016  -0.00023
   8        2PX         0.11649  -0.28992  -0.46639   0.00526  -0.00020
   9        2PY         0.00008   0.00407  -0.01029   0.02370   0.00032
  10        2PZ         0.00002  -0.00007  -0.00003   0.00021   0.50846
  11 3   C  1S         -0.00488   0.01449   0.02342   0.01084  -0.00000
  12        2S          0.01438  -0.03132  -0.08058  -0.04923   0.00000
  13        2PX        -0.01661   0.06623   0.06109   0.01213   0.00001
  14        2PY        -0.01179   0.03467   0.04981   0.03777  -0.00009
  15        2PZ        -0.00003   0.00011  -0.00001   0.00005  -0.06727
  16 4   C  1S         -0.00364   0.01124   0.00541   0.01010  -0.00001
  17        2S          0.01124  -0.03179  -0.01850  -0.03626   0.00002
  18        2PX        -0.00539   0.01841  -0.01870   0.03502   0.00022
  19        2PY        -0.01011   0.03633   0.03510   0.01835  -0.00019
  20        2PZ         0.00002  -0.00007  -0.00009  -0.00016  -0.33679
  21 5   C  1S         -0.00639   0.02235  -0.00361   0.02771  -0.00004
  22        2S          0.02244  -0.07063   0.00778  -0.10822   0.00018
  23        2PX        -0.00355   0.00682   0.00452   0.03225  -0.00009
  24        2PY        -0.02720   0.10599  -0.03037   0.10551  -0.00020
  25        2PZ         0.00005  -0.00019   0.00005  -0.00019  -0.05256
  26 6   C  1S          0.02677  -0.07186   0.06125  -0.10376   0.00005
  27        2S         -0.07071   0.09958  -0.15008   0.26462  -0.00010
  28        2PX        -0.05352   0.12185  -0.07964   0.19419  -0.00007
  29        2PY         0.09944  -0.24006   0.20834  -0.34078   0.00054
  30        2PZ        -0.00010   0.00031  -0.00016   0.00056   0.50426
  31 7   H  1S         -0.11387   0.28672  -0.27054  -0.47571   0.00027
  32 8   H  1S          0.02699  -0.09936  -0.10815   0.06287  -0.00004
  33 9   H  1S         -0.00116   0.00216   0.00963   0.00095   0.00003
  34 10  H  1S         -0.01879   0.07052  -0.04077   0.08754  -0.00004
  35 11  N  1S          0.00131  -0.00209  -0.00783  -0.00181  -0.00001
  36        2S         -0.00474   0.00343   0.03515   0.00795   0.00004
  37        2PX         0.01981  -0.08196  -0.10045  -0.00050   0.00005
  38        2PY         0.01487  -0.07200  -0.06342   0.00824   0.00006
  39        2PZ         0.00001  -0.00003  -0.00004  -0.00002  -0.01851
  40 12  H  1S          0.00050  -0.00203  -0.00647   0.00202   0.00749
  41 13  H  1S          0.00049  -0.00198  -0.00647   0.00205  -0.00751
  42 14  N  1S         -0.00725   0.02928  -0.02496   0.01481  -0.00009
  43        2S          0.03417  -0.13377   0.12186  -0.07525   0.00047
  44        2PX         0.01382  -0.03412   0.06398  -0.03286  -0.00025
  45        2PY        -0.03681   0.18254  -0.07114   0.09793  -0.00084
  46        2PZ        -0.00003   0.00017  -0.00006   0.00006  -0.05871
  47 15  H  1S         -0.01302   0.05357  -0.03660   0.04157  -0.09505
  48 16  H  1S         -0.01311   0.05392  -0.03682   0.04192   0.09468
                           6         7         8         9        10
   6 2   C  1S          2.06679
   7        2S         -0.20325   0.84003
   8        2PX        -0.00366   0.02060   0.61120
   9        2PY         0.00115  -0.01054  -0.00369   0.61790
  10        2PZ         0.00006  -0.00025  -0.00010   0.00013   0.80475
  11 3   C  1S          0.02608  -0.06714  -0.06081  -0.10018  -0.00001
  12        2S         -0.06820   0.08252   0.14820   0.25276   0.00004
  13        2PX         0.05511  -0.13703  -0.08190  -0.20436  -0.00028
  14        2PY         0.09900  -0.23878  -0.21165  -0.33730   0.00026
  15        2PZ         0.00006  -0.00025  -0.00016   0.00034   0.50520
  16 4   C  1S         -0.00639   0.02244   0.00354   0.02720  -0.00001
  17        2S          0.02236  -0.07065  -0.00680  -0.10600   0.00006
  18        2PX         0.00363  -0.00785   0.00452  -0.03040   0.00007
  19        2PY        -0.02771   0.10824   0.03226   0.10551  -0.00004
  20        2PZ         0.00001  -0.00002   0.00002  -0.00012  -0.05254
  21 5   C  1S         -0.00373   0.01180  -0.00546   0.01004  -0.00002
  22        2S          0.01180  -0.03541   0.01937  -0.03571   0.00007
  23        2PX         0.00543  -0.01926  -0.01992  -0.03603   0.00003
  24        2PY        -0.01006   0.03579  -0.03613   0.01737  -0.00037
  25        2PZ        -0.00004   0.00019   0.00014  -0.00024  -0.34122
  26 6   C  1S         -0.00529   0.01676  -0.02455   0.01014   0.00000
  27        2S          0.01602  -0.03999   0.08420  -0.04645  -0.00001
  28        2PX         0.01625  -0.06342   0.05844  -0.01295   0.00003
  29        2PY        -0.01338   0.04254  -0.05388   0.03533  -0.00003
  30        2PZ         0.00001  -0.00002   0.00007  -0.00007  -0.05967
  31 7   H  1S          0.02603  -0.09540   0.11008   0.06113   0.00000
  32 8   H  1S         -0.11439   0.28706   0.27314  -0.47554   0.00050
  33 9   H  1S         -0.01939   0.07489   0.04273   0.08765   0.00004
  34 10  H  1S         -0.00140   0.00356  -0.01104   0.00100  -0.00003
  35 11  N  1S         -0.00149  -0.00232   0.01517  -0.00514   0.00002
  36        2S          0.00150   0.03534  -0.05865   0.03582  -0.00009
  37        2PX        -0.03203   0.13227   0.10072   0.10278   0.00004
  38        2PY        -0.04325   0.20721   0.08570   0.11974  -0.00010
  39        2PZ        -0.00001   0.00002   0.00005  -0.00002  -0.06944
  40 12  H  1S          0.00494  -0.02192  -0.00791  -0.01330  -0.08625
  41 13  H  1S          0.00496  -0.02201  -0.00797  -0.01320   0.08627
  42 14  N  1S          0.00344  -0.01316   0.01674  -0.00092  -0.00002
  43        2S         -0.01631   0.06076  -0.08317   0.00564   0.00008
  44        2PX        -0.01382   0.05141  -0.07429   0.00106  -0.00004
  45        2PY         0.01031  -0.05122   0.03917   0.00310  -0.00022
  46        2PZ         0.00001  -0.00005   0.00003   0.00000  -0.00112
  47 15  H  1S          0.00618  -0.02615   0.02997  -0.00097   0.00300
  48 16  H  1S          0.00620  -0.02624   0.03008  -0.00099  -0.00301
                          11        12        13        14        15
  11 3   C  1S          2.06577
  12        2S         -0.20429   0.84457
  13        2PX         0.00745   0.00356   0.55313
  14        2PY         0.00371  -0.01364  -0.01764   0.60981
  15        2PZ        -0.00003   0.00014  -0.00019   0.00006   0.79965
  16 4   C  1S          0.02674  -0.07064   0.05347  -0.09938   0.00010
  17        2S         -0.07180   0.09959  -0.12183   0.24006  -0.00025
  18        2PX        -0.06121   0.15006  -0.07971   0.20829  -0.00052
  19        2PY         0.10370  -0.26465   0.19417  -0.34089   0.00059
  20        2PZ        -0.00013   0.00035  -0.00052   0.00058   0.50355
  21 5   C  1S         -0.00529   0.01603  -0.01625   0.01340   0.00000
  22        2S          0.01676  -0.04001   0.06341  -0.04261  -0.00005
  23        2PX         0.02453  -0.08418   0.05843  -0.05391   0.00015
  24        2PY        -0.01014   0.04645  -0.01294   0.03532   0.00002
  25        2PZ         0.00002  -0.00007   0.00007  -0.00005  -0.05961
  26 6   C  1S         -0.00476   0.01668  -0.01359  -0.00014   0.00001
  27        2S          0.01668  -0.05771   0.05052   0.00023  -0.00005
  28        2PX         0.01360  -0.05052   0.04396  -0.00120  -0.00005
  29        2PY         0.00017  -0.00035  -0.00113  -0.05903  -0.00021
  30        2PZ         0.00002  -0.00007   0.00023  -0.00008  -0.34381
  31 7   H  1S         -0.01932   0.07339  -0.04831  -0.08334  -0.00002
  32 8   H  1S          0.02532  -0.09751   0.01958   0.13390   0.00002
  33 9   H  1S          0.02498  -0.09631   0.01672  -0.12428   0.00006
  34 10  H  1S         -0.02046   0.07690  -0.04575   0.08593  -0.00007
  35 11  N  1S          0.01282  -0.02299  -0.06840  -0.01098  -0.00004
  36        2S         -0.03285  -0.00489   0.19095   0.04260   0.00010
  37        2PX         0.11463  -0.34922  -0.54238   0.03430  -0.00032
  38        2PY         0.00634  -0.01689  -0.03499   0.08531  -0.00000
  39        2PZ         0.00006  -0.00020  -0.00032  -0.00000   0.03776
  40 12  H  1S          0.02396  -0.10159  -0.12955   0.01343  -0.04747
  41 13  H  1S          0.02395  -0.10156  -0.12962   0.01347   0.04730
  42 14  N  1S         -0.00012   0.00082   0.00053   0.00122   0.00007
  43        2S          0.00134  -0.00631   0.00060  -0.00674  -0.00037
  44        2PX        -0.00235   0.01017  -0.01208   0.00411   0.00030
  45        2PY        -0.00029   0.00223  -0.00118   0.00801   0.00072
  46        2PZ        -0.00001   0.00003  -0.00004   0.00004   0.03389
  47 15  H  1S          0.00035  -0.00190   0.00178   0.00336   0.06467
  48 16  H  1S          0.00035  -0.00193   0.00186   0.00333  -0.06440
                          16        17        18        19        20
  16 4   C  1S          2.06664
  17        2S         -0.20251   0.83570
  18        2PX        -0.00310   0.01949   0.60348
  19        2PY        -0.00436   0.02563   0.01150   0.62314
  20        2PZ         0.00002  -0.00011  -0.00010   0.00010   0.78604
  21 5   C  1S          0.02534  -0.06520   0.11660   0.00133   0.00005
  22        2S         -0.06486   0.07324  -0.29027  -0.01012  -0.00014
  23        2PX        -0.11654   0.28992  -0.46628   0.00529  -0.00036
  24        2PY        -0.00010  -0.00399  -0.01040   0.02384   0.00041
  25        2PZ        -0.00000  -0.00006  -0.00032   0.00029   0.50924
  26 6   C  1S         -0.00488   0.01449  -0.02341  -0.01085   0.00001
  27        2S          0.01438  -0.03134   0.08055   0.04925  -0.00005
  28        2PX         0.01661  -0.06623   0.06108   0.01213   0.00006
  29        2PY         0.01181  -0.03474   0.04983   0.03777  -0.00007
  30        2PZ        -0.00002   0.00007  -0.00007  -0.00010  -0.06722
  31 7   H  1S         -0.00116   0.00215  -0.00957  -0.00099   0.00002
  32 8   H  1S         -0.01880   0.07057   0.04080  -0.08763   0.00008
  33 9   H  1S         -0.11386   0.28672   0.27066   0.47564  -0.00010
  34 10  H  1S          0.02699  -0.09928   0.10813  -0.06288   0.00014
  35 11  N  1S         -0.00726   0.02930   0.02496  -0.01483   0.00003
  36        2S          0.03418  -0.13386  -0.12185   0.07535  -0.00013
  37        2PX        -0.01381   0.03418   0.06397  -0.03291   0.00013
  38        2PY         0.03682  -0.18260  -0.07117   0.09801  -0.00011
  39        2PZ        -0.00003   0.00011   0.00011  -0.00010  -0.05863
  40 12  H  1S         -0.01307   0.05378   0.03679  -0.04184  -0.09468
  41 13  H  1S         -0.01306   0.05375   0.03665  -0.04172   0.09479
  42 14  N  1S          0.00130  -0.00208   0.00783   0.00181  -0.00002
  43        2S         -0.00474   0.00340  -0.03511  -0.00795   0.00010
  44        2PX        -0.01981   0.08193  -0.10037  -0.00046  -0.00014
  45        2PY        -0.01487   0.07200  -0.06336   0.00827  -0.00020
  46        2PZ        -0.00001   0.00007  -0.00004  -0.00001  -0.01853
  47 15  H  1S          0.00051  -0.00205   0.00651  -0.00201   0.00748
  48 16  H  1S          0.00048  -0.00192   0.00639  -0.00206  -0.00751
                          21        22        23        24        25
  21 5   C  1S          2.06679
  22        2S         -0.20327   0.84011
  23        2PX         0.00365  -0.02073   0.61118
  24        2PY        -0.00115   0.01047  -0.00367   0.61789
  25        2PZ        -0.00001   0.00004  -0.00007   0.00010   0.80473
  26 6   C  1S          0.02605  -0.06708   0.06077   0.10015  -0.00008
  27        2S         -0.06815   0.08251  -0.14815  -0.25280   0.00023
  28        2PX        -0.05507   0.13700  -0.08194  -0.20436   0.00018
  29        2PY        -0.09896   0.23877  -0.21156  -0.33744   0.00057
  30        2PZ         0.00011  -0.00034   0.00015   0.00081   0.50444
  31 7   H  1S         -0.01941   0.07496  -0.04275  -0.08776   0.00010
  32 8   H  1S         -0.00140   0.00356   0.01098  -0.00105  -0.00010
  33 9   H  1S          0.02603  -0.09532  -0.11007  -0.06116   0.00004
  34 10  H  1S         -0.11439   0.28707  -0.27331   0.47545  -0.00043
  35 11  N  1S          0.00344  -0.01316  -0.01673   0.00091   0.00000
  36        2S         -0.01630   0.06074   0.08309  -0.00560  -0.00001
  37        2PX         0.01380  -0.05135  -0.07419   0.00103  -0.00004
  38        2PY        -0.01031   0.05124   0.03913   0.00312  -0.00006
  39        2PZ         0.00001  -0.00005  -0.00007  -0.00000  -0.00112
  40 12  H  1S          0.00619  -0.02617  -0.03002   0.00095   0.00299
  41 13  H  1S          0.00619  -0.02621  -0.02998   0.00099  -0.00299
  42 14  N  1S         -0.00149  -0.00232  -0.01517   0.00514  -0.00009
  43        2S          0.00150   0.03530   0.05862  -0.03579   0.00048
  44        2PX         0.03204  -0.13237   0.10073   0.10287  -0.00035
  45        2PY         0.04325  -0.20725   0.08572   0.11977  -0.00079
  46        2PZ         0.00003  -0.00017   0.00006   0.00015  -0.06936
  47 15  H  1S          0.00491  -0.02178   0.00785   0.01305  -0.08631
  48 16  H  1S          0.00501  -0.02217   0.00805   0.01346   0.08592
                          26        27        28        29        30
  26 6   C  1S          2.06577
  27        2S         -0.20427   0.84450
  28        2PX        -0.00745  -0.00357   0.55314
  29        2PY        -0.00371   0.01384  -0.01764   0.60984
  30        2PZ        -0.00004   0.00017  -0.00010   0.00010   0.79964
  31 7   H  1S          0.02498  -0.09623  -0.01667   0.12425  -0.00014
  32 8   H  1S         -0.02045   0.07683   0.04569  -0.08585   0.00002
  33 9   H  1S         -0.01933   0.07345   0.04837   0.08341  -0.00018
  34 10  H  1S          0.02532  -0.09759  -0.01962  -0.13392   0.00013
  35 11  N  1S         -0.00012   0.00081  -0.00053  -0.00123  -0.00001
  36        2S          0.00134  -0.00627  -0.00059   0.00677   0.00003
  37        2PX         0.00235  -0.01015  -0.01208   0.00404  -0.00006
  38        2PY         0.00027  -0.00217  -0.00118   0.00801   0.00001
  39        2PZ        -0.00000   0.00001  -0.00001   0.00002   0.03389
  40 12  H  1S          0.00035  -0.00192  -0.00181  -0.00331   0.06453
  41 13  H  1S          0.00036  -0.00195  -0.00184  -0.00340  -0.06454
  42 14  N  1S          0.01281  -0.02299   0.06841   0.01097   0.00010
  43        2S         -0.03284  -0.00488  -0.19098  -0.04258  -0.00041
  44        2PX        -0.11463   0.34921  -0.54238   0.03441   0.00018
  45        2PY        -0.00634   0.01682  -0.03479   0.08528   0.00076
  46        2PZ        -0.00003   0.00010  -0.00014   0.00016   0.03777
  47 15  H  1S          0.02395  -0.10159   0.12960  -0.01341  -0.04734
  48 16  H  1S          0.02395  -0.10158   0.12957  -0.01355   0.04743
                          31        32        33        34        35
  31 7   H  1S          0.57724
  32 8   H  1S         -0.07969   0.59265
  33 9   H  1S          0.01893  -0.05184   0.57725
  34 10  H  1S         -0.05184   0.01822  -0.07973   0.59269
  35 11  N  1S          0.00095   0.01076   0.00630   0.00810   2.08227
  36        2S         -0.00316  -0.04856  -0.02938  -0.04163  -0.32548
  37        2PX         0.05389   0.06137   0.07276   0.03093  -0.03437
  38        2PY         0.04208   0.01448   0.01584  -0.02801  -0.09427
  39        2PZ         0.00002   0.00002   0.00004   0.00003   0.00002
  40 12  H  1S         -0.00062   0.01685   0.01064   0.01804  -0.07148
  41 13  H  1S         -0.00063   0.01687   0.01062   0.01804  -0.07148
  42 14  N  1S          0.00631   0.00810   0.00094   0.01077   0.00049
  43        2S         -0.02946  -0.04160  -0.00313  -0.04857  -0.00253
  44        2PX        -0.07285  -0.03094  -0.05393  -0.06130  -0.00271
  45        2PY        -0.01578   0.02796  -0.04212  -0.01442  -0.00053
  46        2PZ        -0.00004   0.00004  -0.00006   0.00005   0.00000
  47 15  H  1S          0.01068   0.01800  -0.00058   0.01684   0.00058
  48 16  H  1S          0.01064   0.01806  -0.00069   0.01687   0.00058
                          36        37        38        39        40
  36        2S          1.45285
  37        2PX         0.15794   0.79619
  38        2PY         0.50683   0.29661   1.57460
  39        2PZ        -0.00013  -0.00007  -0.00020   0.69924
  40 12  H  1S          0.14101   0.18717  -0.31869   0.49698   0.54763
  41 13  H  1S          0.14102   0.18775  -0.31910  -0.49649  -0.17249
  42 14  N  1S         -0.00253   0.00272   0.00053  -0.00000   0.00057
  43        2S          0.01278  -0.01452  -0.00280   0.00001  -0.00299
  44        2PX         0.01448  -0.01248  -0.00153  -0.00002  -0.00315
  45        2PY         0.00276  -0.00148   0.00310  -0.00003  -0.00113
  46        2PZ        -0.00001   0.00001  -0.00000  -0.00152  -0.00575
  47 15  H  1S         -0.00307   0.00311   0.00100  -0.00576  -0.01132
  48 16  H  1S         -0.00305   0.00310   0.00101   0.00575   0.01285
                          41        42        43        44        45
  41 13  H  1S          0.54762
  42 14  N  1S          0.00059   2.08227
  43        2S         -0.00313  -0.32548   1.45283
  44        2PX        -0.00303   0.03439  -0.15806   0.79634
  45        2PY        -0.00086   0.09426  -0.50678   0.29681   1.57447
  46        2PZ         0.00576   0.00018  -0.00094   0.00052   0.00156
  47 15  H  1S          0.01290  -0.07149   0.14108  -0.18750   0.31790
  48 16  H  1S         -0.01127  -0.07147   0.14097  -0.18726   0.31998
                          46        47        48
  46        2PZ         0.69923
  47 15  H  1S          0.49728   0.54761
  48 16  H  1S         -0.49619  -0.17249   0.54765
    Full Mulliken population analysis:
                           1         2         3         4         5
   1 1   C  1S          2.06664
   2        2S         -0.05029   0.83555
   3        2PX         0.00000   0.00000   0.60351
   4        2PY         0.00000   0.00000   0.00000   0.62318
   5        2PZ         0.00000   0.00000   0.00000   0.00000   0.78607
   6 2   C  1S          0.00000  -0.00247  -0.00733   0.00000   0.00000
   7        2S         -0.00246   0.02688   0.11310   0.00000   0.00000
   8        2PX        -0.00733   0.11296   0.15302   0.00000   0.00000
   9        2PY         0.00000   0.00000   0.00000   0.00509   0.00000
  10        2PZ         0.00000   0.00000   0.00000   0.00000   0.10927
  11 3   C  1S         -0.00000   0.00003   0.00009   0.00002   0.00000
  12        2S          0.00003  -0.00192  -0.00629  -0.00222   0.00000
  13        2PX         0.00006  -0.00517  -0.00514  -0.00077   0.00000
  14        2PY         0.00003  -0.00156  -0.00316  -0.00041   0.00000
  15        2PZ         0.00000   0.00000   0.00000   0.00000  -0.00173
  16 4   C  1S          0.00000   0.00000   0.00000   0.00001   0.00000
  17        2S          0.00000  -0.00084  -0.00039  -0.00133  -0.00000
  18        2PX         0.00000  -0.00039   0.00015  -0.00111   0.00000
  19        2PY         0.00001  -0.00133  -0.00112  -0.00082  -0.00000
  20        2PZ         0.00000  -0.00000  -0.00000  -0.00000  -0.00343
  21 5   C  1S         -0.00000   0.00004  -0.00000   0.00012   0.00000
  22        2S          0.00004  -0.00433   0.00000  -0.00976  -0.00000
  23        2PX         0.00000  -0.00000   0.00012  -0.00000  -0.00000
  24        2PY         0.00012  -0.00956   0.00000  -0.01274  -0.00000
  25        2PZ         0.00000  -0.00000   0.00000  -0.00000  -0.00135
  26 6   C  1S          0.00000  -0.00273  -0.00193  -0.00566  -0.00000
  27        2S         -0.00269   0.03657   0.02925   0.08932   0.00000
  28        2PX        -0.00168   0.02375  -0.00631   0.04567   0.00000
  29        2PY        -0.00542   0.08103   0.04900   0.06554   0.00000
  30        2PZ        -0.00000   0.00000   0.00000   0.00000   0.10843
  31 7   H  1S         -0.00693   0.13913   0.06275   0.19114   0.00000
  32 8   H  1S          0.00014  -0.00950  -0.01201  -0.00342  -0.00000
  33 9   H  1S         -0.00000   0.00000   0.00002   0.00000  -0.00000
  34 10  H  1S         -0.00000   0.00045   0.00007   0.00092   0.00000
  35 11  N  1S          0.00000  -0.00000  -0.00000  -0.00000  -0.00000
  36        2S         -0.00000   0.00000   0.00007   0.00001   0.00000
  37        2PX        -0.00000   0.00014   0.00032   0.00000  -0.00000
  38        2PY        -0.00000   0.00004   0.00008  -0.00000  -0.00000
  39        2PZ        -0.00000   0.00000   0.00000   0.00000  -0.00001
  40 12  H  1S          0.00000  -0.00000  -0.00001   0.00000   0.00000
  41 13  H  1S          0.00000  -0.00000  -0.00001   0.00000   0.00000
  42 14  N  1S         -0.00000   0.00003   0.00006   0.00002   0.00000
  43        2S          0.00002  -0.00504  -0.00652  -0.00224  -0.00000
  44        2PX         0.00002  -0.00164  -0.00380  -0.00136   0.00000
  45        2PY         0.00002  -0.00490  -0.00294  -0.00080  -0.00000
  46        2PZ        -0.00000   0.00000   0.00000   0.00000  -0.00087
  47 15  H  1S         -0.00000   0.00070   0.00060   0.00046  -0.00051
  48 16  H  1S         -0.00000   0.00070   0.00061   0.00046  -0.00051
                           6         7         8         9        10
   6 2   C  1S          2.06679
   7        2S         -0.05048   0.84003
   8        2PX         0.00000   0.00000   0.61120
   9        2PY         0.00000   0.00000   0.00000   0.61790
  10        2PZ         0.00000   0.00000   0.00000   0.00000   0.80475
  11 3   C  1S          0.00000  -0.00255  -0.00192  -0.00546   0.00000
  12        2S         -0.00259   0.03031   0.02889   0.08532   0.00000
  13        2PX        -0.00174   0.02671  -0.00649   0.04807   0.00000
  14        2PY        -0.00540   0.08060   0.04979   0.06484   0.00000
  15        2PZ         0.00000   0.00000   0.00000   0.00000   0.10866
  16 4   C  1S         -0.00000   0.00004  -0.00000   0.00012   0.00000
  17        2S          0.00004  -0.00433   0.00000  -0.00955  -0.00000
  18        2PX         0.00000  -0.00000   0.00012  -0.00000  -0.00000
  19        2PY         0.00012  -0.00976   0.00000  -0.01274  -0.00000
  20        2PZ         0.00000  -0.00000  -0.00000  -0.00000  -0.00135
  21 5   C  1S          0.00000   0.00000   0.00000   0.00001   0.00000
  22        2S          0.00000  -0.00093  -0.00041  -0.00131  -0.00000
  23        2PX         0.00000  -0.00041   0.00016  -0.00115  -0.00000
  24        2PY         0.00001  -0.00131  -0.00115  -0.00078  -0.00000
  25        2PZ        -0.00000   0.00000  -0.00000  -0.00000  -0.00348
  26 6   C  1S         -0.00000   0.00003   0.00009   0.00002  -0.00000
  27        2S          0.00003  -0.00245  -0.00657  -0.00209   0.00000
  28        2PX         0.00006  -0.00495  -0.00492  -0.00082  -0.00000
  29        2PY         0.00003  -0.00192  -0.00342  -0.00039  -0.00000
  30        2PZ         0.00000  -0.00000  -0.00000  -0.00000  -0.00153
  31 7   H  1S          0.00014  -0.00912  -0.01222  -0.00332   0.00000
  32 8   H  1S         -0.00697   0.13929   0.06332   0.19110   0.00000
  33 9   H  1S         -0.00000   0.00048   0.00007   0.00092  -0.00000
  34 10  H  1S         -0.00000   0.00001   0.00002   0.00000   0.00000
  35 11  N  1S         -0.00000  -0.00000   0.00003  -0.00001   0.00000
  36        2S          0.00000   0.00133  -0.00314   0.00107  -0.00000
  37        2PX         0.00004  -0.00636  -0.00598  -0.00425  -0.00000
  38        2PY         0.00003  -0.00556  -0.00355  -0.00098   0.00000
  39        2PZ         0.00000  -0.00000  -0.00000   0.00000  -0.00103
  40 12  H  1S          0.00001  -0.00068  -0.00033  -0.00016  -0.00118
  41 13  H  1S          0.00001  -0.00068  -0.00033  -0.00016  -0.00117
  42 14  N  1S          0.00000  -0.00000  -0.00000  -0.00000   0.00000
  43        2S         -0.00000   0.00006   0.00015   0.00000  -0.00000
  44        2PX        -0.00000   0.00009   0.00024   0.00000   0.00000
  45        2PY        -0.00000   0.00003   0.00005  -0.00000  -0.00000
  46        2PZ         0.00000  -0.00000  -0.00000   0.00000  -0.00000
  47 15  H  1S          0.00000  -0.00001  -0.00003  -0.00000   0.00000
  48 16  H  1S          0.00000  -0.00001  -0.00003  -0.00000   0.00000
                          11        12        13        14        15
  11 3   C  1S          2.06577
  12        2S         -0.05074   0.84457
  13        2PX         0.00000   0.00000   0.55313
  14        2PY         0.00000   0.00000   0.00000   0.60981
  15        2PZ         0.00000   0.00000   0.00000   0.00000   0.79965
  16 4   C  1S          0.00000  -0.00268  -0.00168  -0.00541  -0.00000
  17        2S         -0.00272   0.03654   0.02373   0.08099   0.00000
  18        2PX        -0.00192   0.02923  -0.00631   0.04896   0.00000
  19        2PY        -0.00565   0.08929   0.04564   0.06558   0.00000
  20        2PZ        -0.00000   0.00000   0.00000   0.00000   0.10816
  21 5   C  1S         -0.00000   0.00003   0.00006   0.00003  -0.00000
  22        2S          0.00003  -0.00245  -0.00495  -0.00192   0.00000
  23        2PX         0.00009  -0.00657  -0.00492  -0.00342  -0.00000
  24        2PY         0.00002  -0.00209  -0.00082  -0.00039   0.00000
  25        2PZ         0.00000  -0.00000  -0.00000  -0.00000  -0.00153
  26 6   C  1S          0.00000   0.00001   0.00002  -0.00000  -0.00000
  27        2S          0.00001  -0.00152  -0.00214   0.00000   0.00000
  28        2PX         0.00002  -0.00214  -0.00278  -0.00000   0.00000
  29        2PY        -0.00000   0.00000  -0.00000  -0.00060  -0.00000
  30        2PZ         0.00000  -0.00000  -0.00000  -0.00000  -0.00350
  31 7   H  1S         -0.00000   0.00047   0.00040   0.00056  -0.00000
  32 8   H  1S          0.00013  -0.00932  -0.00017  -0.01651   0.00000
  33 9   H  1S          0.00013  -0.00920  -0.00014  -0.01532  -0.00000
  34 10  H  1S         -0.00000   0.00050   0.00038   0.00058   0.00000
  35 11  N  1S          0.00000  -0.00057  -0.00280  -0.00000  -0.00000
  36        2S         -0.00077  -0.00140   0.06650   0.00000   0.00000
  37        2PX        -0.00461   0.10556   0.16664  -0.00000   0.00000
  38        2PY        -0.00000   0.00000   0.00000   0.01327   0.00000
  39        2PZ        -0.00000   0.00000   0.00000   0.00000   0.00587
  40 12  H  1S          0.00018  -0.01227  -0.01738  -0.00047  -0.00289
  41 13  H  1S          0.00018  -0.01227  -0.01740  -0.00047  -0.00287
  42 14  N  1S          0.00000   0.00000  -0.00000   0.00000  -0.00000
  43        2S          0.00000  -0.00000  -0.00000  -0.00000   0.00000
  44        2PX        -0.00000   0.00000   0.00001   0.00000  -0.00000
  45        2PY         0.00000  -0.00000  -0.00000   0.00000   0.00000
  46        2PZ        -0.00000   0.00000   0.00000   0.00000   0.00000
  47 15  H  1S          0.00000  -0.00000  -0.00000   0.00000   0.00000
  48 16  H  1S          0.00000  -0.00000  -0.00000   0.00000   0.00000
                          16        17        18        19        20
  16 4   C  1S          2.06664
  17        2S         -0.05030   0.83570
  18        2PX         0.00000   0.00000   0.60348
  19        2PY         0.00000   0.00000   0.00000   0.62314
  20        2PZ         0.00000   0.00000   0.00000   0.00000   0.78604
  21 5   C  1S          0.00000  -0.00248  -0.00734  -0.00000  -0.00000
  22        2S         -0.00246   0.02690   0.11314   0.00000   0.00000
  23        2PX        -0.00734   0.11300   0.15299  -0.00000   0.00000
  24        2PY        -0.00000  -0.00000   0.00000   0.00513  -0.00000
  25        2PZ        -0.00000  -0.00000   0.00000  -0.00000   0.10950
  26 6   C  1S         -0.00000   0.00003   0.00009   0.00002   0.00000
  27        2S          0.00003  -0.00192  -0.00629  -0.00222  -0.00000
  28        2PX         0.00006  -0.00517  -0.00514  -0.00077   0.00000
  29        2PY         0.00003  -0.00157  -0.00316  -0.00041  -0.00000
  30        2PZ         0.00000  -0.00000  -0.00000  -0.00000  -0.00172
  31 7   H  1S         -0.00000   0.00000   0.00002   0.00000   0.00000
  32 8   H  1S         -0.00000   0.00045   0.00007   0.00092   0.00000
  33 9   H  1S         -0.00693   0.13911   0.06282   0.19106   0.00000
  34 10  H  1S          0.00014  -0.00949  -0.01200  -0.00342  -0.00000
  35 11  N  1S         -0.00000   0.00003   0.00006   0.00002   0.00000
  36        2S          0.00002  -0.00504  -0.00651  -0.00224  -0.00000
  37        2PX         0.00002  -0.00164  -0.00380  -0.00136  -0.00000
  38        2PY         0.00002  -0.00489  -0.00294  -0.00080  -0.00000
  39        2PZ         0.00000  -0.00000  -0.00000  -0.00000  -0.00087
  40 12  H  1S         -0.00000   0.00070   0.00060   0.00046  -0.00051
  41 13  H  1S         -0.00000   0.00070   0.00060   0.00046  -0.00051
  42 14  N  1S          0.00000  -0.00000  -0.00000  -0.00000  -0.00000
  43        2S         -0.00000   0.00000   0.00007   0.00001   0.00000
  44        2PX        -0.00000   0.00014   0.00032   0.00000  -0.00000
  45        2PY        -0.00000   0.00004   0.00008  -0.00000  -0.00000
  46        2PZ         0.00000  -0.00000  -0.00000  -0.00000  -0.00001
  47 15  H  1S          0.00000  -0.00000  -0.00001   0.00000   0.00000
  48 16  H  1S          0.00000  -0.00000  -0.00001   0.00000   0.00000
                          21        22        23        24        25
  21 5   C  1S          2.06679
  22        2S         -0.05049   0.84011
  23        2PX         0.00000   0.00000   0.61118
  24        2PY         0.00000   0.00000   0.00000   0.61789
  25        2PZ         0.00000   0.00000   0.00000   0.00000   0.80473
  26 6   C  1S          0.00000  -0.00255  -0.00191  -0.00546  -0.00000
  27        2S         -0.00259   0.03029   0.02886   0.08531   0.00000
  28        2PX        -0.00173   0.02669  -0.00649   0.04805   0.00000
  29        2PY        -0.00539   0.08057   0.04975   0.06490   0.00000
  30        2PZ        -0.00000   0.00000   0.00000   0.00000   0.10841
  31 7   H  1S         -0.00000   0.00048   0.00007   0.00093   0.00000
  32 8   H  1S         -0.00000   0.00001   0.00002   0.00000  -0.00000
  33 9   H  1S          0.00014  -0.00911  -0.01221  -0.00332   0.00000
  34 10  H  1S         -0.00696   0.13927   0.06342   0.19099   0.00000
  35 11  N  1S          0.00000  -0.00000  -0.00000  -0.00000   0.00000
  36        2S         -0.00000   0.00006   0.00015   0.00000  -0.00000
  37        2PX        -0.00000   0.00009   0.00024   0.00000   0.00000
  38        2PY        -0.00000   0.00003   0.00005  -0.00000  -0.00000
  39        2PZ        -0.00000   0.00000   0.00000  -0.00000  -0.00000
  40 12  H  1S          0.00000  -0.00001  -0.00003  -0.00000   0.00000
  41 13  H  1S          0.00000  -0.00001  -0.00003  -0.00000   0.00000
  42 14  N  1S         -0.00000  -0.00000   0.00003  -0.00001  -0.00000
  43        2S          0.00000   0.00133  -0.00313   0.00107   0.00000
  44        2PX         0.00004  -0.00637  -0.00598  -0.00426  -0.00000
  45        2PY         0.00003  -0.00556  -0.00355  -0.00098  -0.00000
  46        2PZ        -0.00000   0.00000   0.00000   0.00000  -0.00103
  47 15  H  1S          0.00001  -0.00068  -0.00033  -0.00016  -0.00117
  48 16  H  1S          0.00001  -0.00069  -0.00034  -0.00017  -0.00117
                          26        27        28        29        30
  26 6   C  1S          2.06577
  27        2S         -0.05073   0.84450
  28        2PX         0.00000   0.00000   0.55314
  29        2PY         0.00000   0.00000   0.00000   0.60984
  30        2PZ         0.00000   0.00000   0.00000   0.00000   0.79964
[...]
  39        2PZ         0.00000   0.00000   0.00000   0.69924
  40 12  H  1S          0.07085   0.02765   0.06662   0.18017   0.54763
  41 13  H  1S          0.07085   0.02782   0.06680   0.17982  -0.03648
  42 14  N  1S         -0.00000  -0.00000   0.00000   0.00000   0.00000
  43        2S          0.00000   0.00000  -0.00000  -0.00000  -0.00000
  44        2PX         0.00000   0.00000  -0.00000   0.00000  -0.00000
  45        2PY        -0.00000  -0.00000   0.00000  -0.00000   0.00000
  46        2PZ        -0.00000  -0.00000  -0.00000  -0.00000  -0.00000
  47 15  H  1S         -0.00000  -0.00000   0.00000  -0.00000  -0.00000
  48 16  H  1S         -0.00000  -0.00000   0.00000  -0.00000   0.00000
                          41        42        43        44        45
  41 13  H  1S          0.54762
  42 14  N  1S          0.00000   2.08227
  43        2S         -0.00000  -0.07650   1.45283
  44        2PX        -0.00000   0.00000   0.00000   0.79634
  45        2PY         0.00000   0.00000   0.00000   0.00000   1.57447
  46        2PZ        -0.00000   0.00000   0.00000   0.00000   0.00000
  47 15  H  1S          0.00000  -0.00430   0.07088   0.02774   0.06630
  48 16  H  1S         -0.00000  -0.00429   0.07082   0.02768   0.06716
                          46        47        48
  46        2PZ         0.69923
  47 15  H  1S          0.18037   0.54761
  48 16  H  1S          0.17962  -0.03648   0.54765
     Gross orbital populations:
                           1
   1 1   C  1S          1.99031
   2        2S          1.15634
   3        2PX         0.95583
   4        2PY         0.97932
   5        2PZ         0.99537
   6 2   C  1S          1.99031
   7        2S          1.15500
   8        2PX         0.96233
   9        2PY         0.97130
  10        2PZ         1.01294
  11 3   C  1S          1.99035
  12        2S          1.12449
  13        2PX         0.85057
  14        2PY         0.96000
  15        2PZ         1.00984
  16 4   C  1S          1.99031
  17        2S          1.15645
  18        2PX         0.95585
  19        2PY         0.97922
  20        2PZ         0.99532
  21 5   C  1S          1.99031
  22        2S          1.15506
  23        2PX         0.96235
  24        2PY         0.97122
  25        2PZ         1.01292
  26 6   C  1S          1.99034
  27        2S          1.12444
  28        2PX         0.85058
  29        2PY         0.96003
  30        2PZ         1.00985
  31 7   H  1S          0.91166
  32 8   H  1S          0.92607
  33 9   H  1S          0.91166
  34 10  H  1S          0.92609
  35 11  N  1S          1.99396
  36        2S          1.56632
  37        2PX         1.09407
  38        2PY         1.70284
  39        2PZ         1.06319
  40 12  H  1S          0.81880
  41 13  H  1S          0.81880
  42 14  N  1S          1.99396
  43        2S          1.56631
  44        2PX         1.09418
  45        2PY         1.70274
  46        2PZ         1.06318
  47 15  H  1S          0.81880
  48 16  H  1S          0.81882
          Condensed to atoms (all electrons):
               1          2          3          4          5          6
     1  C    4.814362   0.500728  -0.028121  -0.010577  -0.037298   0.502139
     2  C    0.500728   4.839707   0.497055  -0.037295  -0.010728  -0.028800
     3  C   -0.028121   0.497055   4.771453   0.501749  -0.028792  -0.012639
     4  C   -0.010577  -0.037295   0.501749   4.814414   0.501034  -0.028121
     5  C   -0.037298  -0.010728  -0.028792   0.501034   4.839728   0.496721
     6  C    0.502139  -0.028800  -0.012639  -0.028121   0.496721   4.771419
     7  H    0.386091  -0.024518   0.001435   0.000023   0.001481  -0.024532
     8  H   -0.024778   0.386748  -0.025867   0.001447   0.000028   0.001453
     9  H    0.000023   0.001479  -0.024529   0.386065  -0.024509   0.001435
    10  H    0.001447   0.000028   0.001452  -0.024764   0.386719  -0.025870
    11  N    0.000642  -0.028364   0.347700  -0.029947   0.000612   0.000013
    12  H   -0.000012  -0.002345  -0.032839   0.001254  -0.000042   0.000003
    13  H   -0.000012  -0.002346  -0.032836   0.001254  -0.000042   0.000003
    14  N   -0.029955   0.000613   0.000013   0.000642  -0.028369   0.347704
    15  H    0.001248  -0.000042   0.000003  -0.000012  -0.002332  -0.032839
    16  H    0.001259  -0.000042   0.000003  -0.000012  -0.002357  -0.032840
               7          8          9         10         11         12
     1  C    0.386091  -0.024778   0.000023   0.001447   0.000642  -0.000012
     2  C   -0.024518   0.386748   0.001479   0.000028  -0.028364  -0.002345
     3  C    0.001435  -0.025867  -0.024529   0.001452   0.347700  -0.032839
     4  C    0.000023   0.001447   0.386065  -0.024764  -0.029947   0.001254
     5  C    0.001481   0.000028  -0.024509   0.386719   0.000612  -0.000042
     6  C   -0.024532   0.001453   0.001435  -0.025870   0.000013   0.000003
     7  H    0.577238  -0.003988   0.000002  -0.000039  -0.000012  -0.000000
     8  H   -0.003988   0.592653  -0.000039   0.000002  -0.002702   0.000560
     9  H    0.000002  -0.000039   0.577253  -0.003984  -0.001690   0.000085
    10  H   -0.000039   0.000002  -0.003984   0.592688  -0.000010   0.000001
    11  N   -0.000012  -0.002702  -0.001690  -0.000010   6.452145   0.340992
    12  H   -0.000000   0.000560   0.000085   0.000001   0.340992   0.547628
    13  H   -0.000000   0.000561   0.000085   0.000001   0.340992  -0.036482
    14  N   -0.001695  -0.000010  -0.000012  -0.002702   0.000000  -0.000000
    15  H    0.000086   0.000001  -0.000000   0.000559  -0.000000  -0.000000
    16  H    0.000085   0.000001  -0.000000   0.000563  -0.000000   0.000000
              13         14         15         16
     1  C   -0.000012  -0.029955   0.001248   0.001259
     2  C   -0.002346   0.000613  -0.000042  -0.000042
     3  C   -0.032836   0.000013   0.000003   0.000003
     4  C    0.001254   0.000642  -0.000012  -0.000012
     5  C   -0.000042  -0.028369  -0.002332  -0.002357
     6  C    0.000003   0.347704  -0.032839  -0.032840
     7  H   -0.000000  -0.001695   0.000086   0.000085
     8  H    0.000561  -0.000010   0.000001   0.000001
     9  H    0.000085  -0.000012  -0.000000  -0.000000
    10  H    0.000001  -0.002702   0.000559   0.000563
    11  N    0.340992   0.000000  -0.000000  -0.000000
    12  H   -0.036482  -0.000000  -0.000000   0.000000
    13  H    0.547620  -0.000000   0.000000  -0.000000
    14  N   -0.000000   6.452151   0.340997   0.340992
    15  H    0.000000   0.340997   0.547611  -0.036483
    16  H   -0.000000   0.340992  -0.036483   0.547652
 Mulliken charges:
               1
     1  C   -0.077185
     2  C   -0.091879
     3  C    0.064758
     4  C   -0.077152
     5  C   -0.091855
     6  C    0.064751
     7  H    0.088345
     8  H    0.073932
     9  H    0.088335
    10  H    0.073910
    11  N   -0.420371
    12  H    0.181196
    13  H    0.181203
    14  N   -0.420369
    15  H    0.181203
    16  H    0.181179
 Sum of Mulliken charges =  -0.00000
 Mulliken charges with hydrogens summed into heavy atoms:
               1
     1  C    0.011160
     2  C   -0.017947
     3  C    0.064758
     4  C    0.011183
     5  C   -0.017945
     6  C    0.064751
    11  N   -0.057973
    14  N   -0.057987
 Electronic spatial extent (au):  <R**2>=           1382.8532
 Charge=             -0.0000 electrons
 Dipole moment (field-independent basis, Debye):
    X=              0.0007    Y=             -0.0001    Z=              0.0039  Tot=              0.0039
 Quadrupole moment (field-independent basis, Debye-Ang):
   XX=            -42.9241   YY=            -41.2137   ZZ=            -43.1331
   XY=             -9.5221   XZ=             -0.0075   YZ=             -0.0032
 Traceless Quadrupole moment (field-independent basis, Debye-Ang):
   XX=             -0.5005   YY=              1.2099   ZZ=             -0.7095
   XY=             -9.5221   XZ=             -0.0075   YZ=             -0.0032
 Octapole moment (field-independent basis, Debye-Ang**2):
  XXX=             30.2578  YYY=           -164.9264  ZZZ=              0.0614  XYY=            -15.7254
  XXY=            -52.7804  XXZ=              0.0543  XZZ=             10.1308  YZZ=            -57.5349
  YYZ=             -0.0003  XYZ=              0.0016
 Hexadecapole moment (field-independent basis, Debye-Ang**3):
 XXXX=           -868.4447 YYYY=           -703.8137 ZZZZ=            -43.2063 XXXY=            -51.0709
 XXXZ=             -0.2456 YYYX=             -1.5691 YYYZ=              0.0829 ZZZX=             -0.1171
 ZZZY=              0.1648 XXYY=           -252.1632 XXZZ=           -130.5814 YYZZ=           -134.5104
 XXYZ=              0.0418 YYXZ=             -0.0130 ZZXY=             12.3194
 N-N= 3.421284489380D+02 E-N=-1.470353550390D+03  KE= 3.331287682919D+02
 Orbital energies and kinetic energies (alpha):
                                 1                 2
   1         O               -13.794707         21.636069
   2         O               -13.794692         21.636100
   3         O                -9.771626         15.576619
   4         O                -9.771563         15.578697
   5         O                -9.741798         15.555254
   6         O                -9.741774         15.554881
   7         O                -9.740805         15.595615
   8         O                -9.740696         15.600505
   9         O                -0.766841          1.541280
  10         O                -0.754060          1.617903
  11         O                -0.692069          1.522799
  12         O                -0.622670          1.532006
  13         O                -0.586800          1.691730
  14         O                -0.496737          1.356539
  15         O                -0.473291          1.406868
  16         O                -0.405328          1.087238
  17         O                -0.385459          1.129673
  18         O                -0.383013          1.148256
  19         O                -0.364826          1.353965
  20         O                -0.349560          1.282918
  21         O                -0.322835          1.150525
  22         O                -0.319532          1.388939
  23         O                -0.262837          1.491787
  24         O                -0.256481          1.140591
  25         O                -0.254695          1.331392
  26         O                -0.158815          1.324323
  27         O                -0.150279          1.377306
  28         O                -0.076458          1.984184
  29         O                -0.074608          1.970425
  30         V                 0.061675          1.824099
  31         V                 0.066074          1.836736
  32         V                 0.208357          2.148424
  33         V                 0.272898          2.557436
  34         V                 0.298414          3.026239
  35         V                 0.341241          2.174691
  36         V                 0.359322          2.660636
  37         V                 0.377518          2.503690
  38         V                 0.403650          3.014856
  39         V                 0.407657          3.268638
  40         V                 0.432016          3.156770
  41         V                 0.436173          2.506502
  42         V                 0.438787          2.520977
  43         V                 0.516166          3.059484
  44         V                 0.538223          2.856969
  45         V                 0.547978          3.268301
  46         V                 0.565995          3.263598
  47         V                 0.706835          3.402106
  48         V                 0.744680          3.694849
 Total kinetic energy from orbitals= 3.331287682919D+02
 Calling FoFJK, ICntrl=      2527 FMM=F ISym2X=0 I1Cent= 0 IOpClX= 0 NMat=1 NMatS=1 NMatT=0.
 -------------------------------------------------------------------
 Center     Atomic                   Forces (Hartrees/Bohr)
 Number     Number              X              Y              Z
 -------------------------------------------------------------------
      1        6          -0.004866400   -0.026630968    0.000013143
      2        6          -0.002482758   -0.023468303    0.000114149
      3        6           0.026059374   -0.004812094   -0.000033638
      4        6           0.005268563    0.026316743    0.000000771
      5        6           0.002163206    0.023308978   -0.000028104
      6        6          -0.026157754    0.005379887   -0.000046209
      7        1          -0.004613598   -0.003024642    0.000007446
      8        1           0.002911067   -0.004135011   -0.000034506
      9        1           0.004565464    0.002993039   -0.000016224
     10        1          -0.002837700    0.004084243    0.000005031
     11        7          -0.020574405    0.072882494   -0.000041171
     12        1           0.020738567   -0.032725254    0.044844476
     13        1           0.020792837   -0.032760037   -0.044793301
     14        7           0.020545652   -0.072904751   -0.000132333
     15        1          -0.020778396    0.032634442    0.044888051
     16        1          -0.020733718    0.032861234   -0.044747581
 -------------------------------------------------------------------
 Cartesian Forces:  Max     0.072904751 RMS     0.024834603

 GradGradGradGradGradGradGradGradGradGradGradGradGradGradGradGradGradGrad
 Berny optimization.
 Search for a local minimum.
 Step number   1 out of a maximum of    2
 All quantities printed in internal units (Hartrees-Bohrs-Radians)
 Second derivative matrix not updated -- first step.
 ITU=  0
     Eigenvalues ---    0.00321   0.00600   0.00651   0.01471   0.01627
     Eigenvalues ---    0.01671   0.01957   0.02738   0.03852   0.04460
     Eigenvalues ---    0.04932   0.06707   0.06978   0.08085   0.08884
     Eigenvalues ---    0.09559   0.10840   0.12187   0.13991   0.14513
     Eigenvalues ---    0.15261   0.20913   0.21365   0.29805   0.30036
     Eigenvalues ---    0.31664   0.39065   0.44024   0.47421   0.61559
     Eigenvalues ---    0.66434   0.85636   0.86833   1.02739   1.07465
     Eigenvalues ---    1.10512   1.11599   1.23236   1.28450   1.47337
     Eigenvalues ---    1.59089   1.61294
 Quadratic step=5.418D-01 exceeds max=3.000D-01 adjusted using Lamda=-7.867D-02.
 Angle between NR and scaled steps=  26.49 degrees.
 Angle between quadratic step and forces=  39.52 degrees.
 Linear search not attempted -- first point.
 B after Tr=     0.008150    0.001456    0.000022
         Rot=    0.999999    0.000006    0.000004   -0.001618 Ang=   0.19 deg.
 Variable       Old X    -DE/DX   Delta X   Delta X   Delta X     New X
                                 (Linear)    (Quad)   (Total)
    X1       -1.76216  -0.00487   0.00000  -0.02790  -0.02037  -1.78252
    Y1        0.23784  -0.02663   0.00000  -0.04501  -0.04935   0.18849
    Z1        0.00000   0.00001   0.00000   0.00010   0.00011   0.00011
    X2        0.87431  -0.00248   0.00000   0.00584   0.01337   0.88768
    Y2        0.23784  -0.02347   0.00000  -0.04498  -0.04068   0.19716
    Z2        0.00000   0.00011   0.00000   0.00041   0.00043   0.00043
    X3        2.19247   0.02606   0.00000   0.05073   0.05072   2.24318
    Y3        2.52016  -0.00481   0.00000   0.00028   0.00899   2.52914
    Z3        0.00000  -0.00003   0.00000  -0.00007  -0.00006  -0.00006
    X4        0.87409   0.00527   0.00000   0.02812   0.02058   0.89467
    Y4        4.80391   0.02632   0.00000   0.04477   0.04912   4.85303
    Z4       -0.00227   0.00000   0.00000   0.00002  -0.00002  -0.00228
    X5       -1.76174   0.00216   0.00000  -0.00594  -0.01347  -1.77522
    Y5        4.80376   0.02331   0.00000   0.04488   0.04059   4.84435
    Z5       -0.00317  -0.00003   0.00000  -0.00001  -0.00007  -0.00324
    X6       -3.08002  -0.02616   0.00000  -0.05083  -0.05082  -3.13084
    Y6        2.52058   0.00538   0.00000   0.00005  -0.00864   2.51194
    Z6       -0.00129  -0.00005   0.00000  -0.00022  -0.00025  -0.00154
    X7       -2.80105  -0.00461   0.00000  -0.04729  -0.03396  -2.83501
    Y7       -1.56178  -0.00302   0.00000  -0.03593  -0.04369  -1.60547
    Z7        0.00085   0.00001   0.00000   0.00006   0.00008   0.00093
    X8        1.91273   0.00291   0.00000   0.01090   0.02425   1.93698
    Y8       -1.56215  -0.00414   0.00000  -0.04690  -0.03921  -1.60136
    Z8        0.00248  -0.00003   0.00000  -0.00012  -0.00006   0.00243
    X9        1.91382   0.00457   0.00000   0.04720   0.03385   1.94767
    Y9        6.60320   0.00299   0.00000   0.03574   0.04351   6.64671
    Z9       -0.00238  -0.00002   0.00000  -0.00010  -0.00015  -0.00253
   X10       -2.80132  -0.00284   0.00000  -0.01056  -0.02392  -2.82524
   Y10        6.60331   0.00408   0.00000   0.04683   0.03915   6.64246
   Z10       -0.00497   0.00001   0.00000   0.00010   0.00001  -0.00496
   X11        4.97036  -0.02057   0.00000   0.06868   0.06842   5.03878
   Y11        2.52036   0.07288   0.00000   0.07043   0.08818   2.60854
   Z11        0.00160  -0.00004   0.00000  -0.00008  -0.00005   0.00155
   X12        5.59945   0.02074   0.00000   0.05605   0.05909   5.65854
   Y12        1.63024  -0.03273   0.00000  -0.06699  -0.04722   1.58302
   Z12        1.54530   0.04484   0.00000   0.05851   0.05856   1.60386
   X13        5.60123   0.02079   0.00000   0.05614   0.05922   5.66045
   Y13        1.62892  -0.03276   0.00000  -0.06703  -0.04729   1.58163
   Z13       -1.54061  -0.04479   0.00000  -0.05855  -0.05850  -1.59911
   X14       -5.85792   0.02055   0.00000  -0.06877  -0.06852  -5.92644
   Y14        2.52104  -0.07290   0.00000  -0.07035  -0.08809   2.43295
   Z14       -0.00174  -0.00013   0.00000  -0.00026  -0.00032  -0.00207
   X15       -6.48793  -0.02078   0.00000  -0.05623  -0.05931  -6.54724
   Y15        3.40916   0.03263   0.00000   0.06651   0.04679   3.45595
   Z15        1.54273   0.04489   0.00000   0.05877   0.05869   1.60142
   X16       -6.48742  -0.02073   0.00000  -0.05605  -0.05912  -6.54655
   Y16        3.41479   0.03286   0.00000   0.06759   0.04783   3.46262
   Z16       -1.54317  -0.04475   0.00000  -0.05830  -0.05839  -1.60156
         Item               Value     Threshold  Converged?
 Maximum Force            0.072905     0.000450     NO 
 RMS     Force            0.024835     0.000300     NO 
 Maximum Displacement     0.088180     0.001800     NO 
 RMS     Displacement     0.042466     0.001200     NO 
 Predicted change in Energy=-2.347416D-02
 GradGradGradGradGradGradGradGradGradGradGradGradGradGradGradGradGradGrad

 Unable to Open any file for archive entry.
 1\1\GINC-BHD0007\Force\RBLYP\STO-3G\C6H8N2\BWEIGHT\29-Dec-2022\0\\# BL
 YP/STO-3G SCF=XQC FORCE nosym pop=full\\MD Step 0\\0,1\C,-0.93249429,0
 .12585812,0.\C,0.46266571,0.12585812,0.\C,1.16020371,1.33360912,0.\C,0
 .46254971,2.54211812,-0.001199\C,-0.93227529,2.54204012,-0.001678\C,-1
 .62987629,1.33383412,-0.000682\H,-1.48225329,-0.82645888,0.00045\H,1.0
 1217371,-0.82665488,0.001315\H,1.01274971,3.49426112,-0.001258\H,-1.48
 239729,3.49432112,-0.002631\N,2.63020346,1.33371606,0.0008475\H,2.9630
 9986,0.86268626,0.81773851\H,2.96404138,0.86198552,-0.81525454\N,-3.09
 987625,1.33407876,-0.00092263\H,-3.43326487,1.8040492,0.81637769\H,-3.
 43299706,1.80702664,-0.81661304\\Version=ES64L-G16RevC.01\HF=-338.4109
 401\RMSD=8.132e-09\RMSF=2.483e-02\Dipole=0.0002665,-0.000039,0.0015273
 \Quadrupole=-0.3720915,0.8995538,-0.5274622,-7.0794558,-0.0056081,-0.0
 024152\PG=C01 [X(C6H8N2)]\\@
 The archive entry for this job was punched.


 Happiness is a conscious choice, not an automatic response.
 -- Mildred Barthel
 Job cpu time:       0 days  0 hours  0 minutes 16.4 seconds.
 Elapsed time:       0 days  0 hours  0 minutes 16.9 seconds.
 File lengths (MBytes):  RWF=    272 Int=      0 D2E=      0 Chk=     32 Scr=     32
 Normal termination of Gaussian 16 at Thu Dec 29 21:23:26 2022.
