 Entering Gaussian System, Link 0=g16
 Initial command:
 /software/gaussian/g16-c01/avx2/g16/l1.exe "/gpfs/fs2/scratch/bweight/software/many_molecule_many_mode_NAMD/src/NAMD/TEST_RESCALE/G16/TD_NEW_S1/Gau-32116.inp" -scrdir="/gpfs/fs2/scratch/bweight/software/many_molecule_many_mode_NAMD/src/NAMD/TEST_RESCALE/G16/TD_NEW_S1/"
 Entering Link 1 = /software/gaussian/g16-c01/avx2/g16/l1.exe PID=     32117.
  
 Copyright (c) 1988-2019, Gaussian, Inc.  All Rights Reserved.
  
 This is part of the Gaussian(R) 16 program.  It is based on
 the Gaussian(R) 09 system (copyright 2009, Gaussian, Inc.),
 the Gaussian(R) 03 system (copyright 2003, Gaussian, Inc.),
 the Gaussian(R) 98 system (copyright 1998, Gaussian, Inc.),
 the Gaussian(R) 94 system (copyright 1995, Gaussian, Inc.),
 the Gaussian 92(TM) system (copyright 1992, Gaussian, Inc.),
 the Gaussian 90(TM) system (copyright 1990, Gaussian, Inc.),
 the Gaussian 88(TM) system (copyright 1988, Gaussian, Inc.),
 the Gaussian 86(TM) system (copyright 1986, Carnegie Mellon
 University), and the Gaussian 82(TM) system (copyright 1983,
 Carnegie Mellon University). Gaussian is a federally registered
 trademark of Gaussian, Inc.
  
 This software contains proprietary and confidential information,
 including trade secrets, belonging to Gaussian, Inc.
  
 This software is provided under written license and may be
 used, copied, transmitted, or stored only in accord with that
 written license.
  
 The following legend is applicable only to US Government
 contracts under FAR:
  
                    RESTRICTED RIGHTS LEGEND
  
 Use, reproduction and disclosure by the US Government is
 subject to restrictions as set forth in subparagraphs (a)
 and (c) of the Commercial Computer Software - Restricted
 Rights clause in FAR 52.227-19.
  
 Gaussian, Inc.
 340 Quinnipiac St., Bldg. 40, Wallingford CT 06492
  
  
 ---------------------------------------------------------------
 Warning -- This program may not be used in any manner that
 competes with the business of Gaussian, Inc. or will provide
 assistance to any competitor of Gaussian, Inc.  The licensee
 of this program is prohibited from giving any competitor of
 Gaussian, Inc. access to this program.  By using this program,
 the user acknowledges that Gaussian, Inc. is engaged in the
 business of creating and licensing software in the field of
 computational chemistry and represents and warrants to the
 licensee that it is not a competitor of Gaussian, Inc. and that
 it will not use this program in any manner prohibited above.
 ---------------------------------------------------------------
  

 Cite this work as:
 Gaussian 16, Revision C.01,
 M. J. Frisch, G. W. Trucks, H. B. Schlegel, G. E. Scuseria, 
 M. A. Robb, J. R. Cheeseman, G. Scalmani, V. Barone, 
 G. A. Petersson, H. Nakatsuji, X. Li, M. Caricato, A. V. Marenich, 
 J. Bloino, B. G. Janesko, R. Gomperts, B. Mennucci, H. P. Hratchian, 
 J. V. Ortiz, A. F. Izmaylov, J. L. Sonnenberg, D. Williams-Young, 
 F. Ding, F. Lipparini, F. Egidi, J. Goings, B. Peng, A. Petrone, 
 T. Henderson, D. Ranasinghe, V. G. Zakrzewski, J. Gao, N. Rega, 
 G. Zheng, W. Liang, M. Hada, M. Ehara, K. Toyota, R. Fukuda, 
 J. Hasegawa, M. Ishida, T. Nakajima, Y. Honda, O. Kitao, H. Nakai, 
 T. Vreven, K. Throssell, J. A. Montgomery, Jr., J. E. Peralta, 
 F. Ogliaro, M. J. Bearpark, J. J. Heyd, E. N. Brothers, K. N. Kudin, 
 V. N. Staroverov, T. A. Keith, R. Kobayashi, J. Normand, 
 K. Raghavachari, A. P. Rendell, J. C. Burant, S. S. Iyengar, 
 J. Tomasi, M. Cossi, J. M. Millam, M. Klene, C. Adamo, R. Cammi, 
 J. W. Ochterski, R. L. Martin, K. Morokuma, O. Farkas, 
 J. B. Foresman, and D. J. Fox, Gaussian, Inc., Wallingford CT, 2019.
 
 ******************************************
 Gaussian 16:  ES64L-G16RevC.01  3-Jul-2019
                14-Jan-2023 
 ******************************************
 %oldchk=../GS_NEW/geometry.chk
 %chk=geometry.chk
 %nprocshared=24
 Will use up to   24 processors via shared memory.
 %mem=5GB
 Copying data from "../GS_NEW/geometry.chk" to current chk file "geometry.chk"
 IOpt=  2 FromEx=T IUOpen= 4 IOptOp= 5 NList=   0 IFRang= 0 IUIn= 4 IUOut= 2.
 ----------------------------------------------------------------------
 # WB97XD/6-311++G** SCF=XQC TD=(singlets,nstates=2,root=1) FORCE nosym
  pop=full guess=read
 ----------------------------------------------------------------------
 1/10=7,30=1,38=1/1,3;
 2/12=2,15=1,17=6,18=5,40=1/2;
 3/5=4,6=6,7=1111,11=9,25=1,30=1,71=1,74=-58,116=-2/1,2,3,8;
 4/5=1/1;
 5/5=2,8=3,13=1,38=6/2,8;
 8/6=1,10=2,107=1,108=2/1;
 9/8=1,15=2,41=2,42=1,48=1,70=2/14;
 10/5=4,28=1,31=1/2;
 6/7=3,18=1/1;
 7/12=6,13=5,14=1,29=1,30=1/1,2,3,16;
 1/10=7,30=1/3;
 99//99;
 ---------
 MD Step 1
 ---------
 Symbolic Z-matrix:
 Charge =  0 Multiplicity = 1
 C                    -0.33654  -0.58641   0.00112 
 H                     0.19946  -1.51149   0.00386 
 H                    -1.40396  -0.58365   0.00386 
 C                     0.33878   0.58865   0.00112 
 H                    -0.19174   1.51922   0.00386 
 H                     1.41168   0.59137   0.00387 
 

 GradGradGradGradGradGradGradGradGradGradGradGradGradGradGradGradGradGrad
 Berny optimization.
 Initialization pass.
 Trust Radius=3.00D-01 FncErr=1.00D-07 GrdErr=1.00D-07 EigMax=2.50D+02 EigMin=1.00D-04
 Number of steps in this run=      2 maximum allowed number of steps=      2.
 GradGradGradGradGradGradGradGradGradGradGradGradGradGradGradGradGradGrad

                          Input orientation:                          
 ---------------------------------------------------------------------
 Center     Atomic      Atomic             Coordinates (Angstroms)
 Number     Number       Type             X           Y           Z
 ---------------------------------------------------------------------
      1          6           0       -0.336544   -0.586413    0.001120
      2          1           0        0.199465   -1.511493    0.003861
      3          1           0       -1.403957   -0.583648    0.003865
      4          6           0        0.338783    0.588652    0.001119
      5          1           0       -0.191740    1.519222    0.003864
      6          1           0        1.411681    0.591374    0.003868
 ---------------------------------------------------------------------
                    Distance matrix (angstroms):
                    1          2          3          4          5
     1  C    0.000000
     2  H    1.069152   0.000000
     3  H    1.067420   1.852527   0.000000
     4  C    1.355302   2.104763   2.100342   0.000000
     5  H    2.110610   3.055859   2.427247   1.071178   0.000000
     6  H    2.107957   2.427245   3.050982   1.072906   1.852529
                    6
     6  H    0.000000
 Symmetry turned off by external request.
 Stoichiometry    C2H4
 Framework group  C1[X(C2H4)]
 Deg. of freedom    12
 Full point group                 C1      NOp   1
 Rotational constants (GHZ):         146.1171986          29.8004225          24.7522978
 Standard basis: 6-311++G(d,p) (5D, 7F)
    72 basis functions,   108 primitive gaussians,    74 cartesian basis functions
     8 alpha electrons        8 beta electrons
       nuclear repulsion energy        33.3085184690 Hartrees.
 NAtoms=    6 NActive=    6 NUniq=    6 SFac= 1.00D+00 NAtFMM=   60 NAOKFM=F Big=F
 Integral buffers will be    131072 words long.
 Raffenetti 1 integral format.
 Two-electron integral symmetry is turned off.
 Nuclear repulsion after empirical dispersion term =       33.3076711806 Hartrees.
 One-electron integrals computed using PRISM.
 NBasis=    72 RedAO= T EigKep=  1.57D-04  NBF=    72
 NBsUse=    72 1.00D-06 EigRej= -1.00D+00 NBFU=    72
 Initial guess from the checkpoint file:  "geometry.chk"
 B after Tr=     0.000000    0.000000    0.000000
         Rot=    1.000000    0.000000    0.000000    0.000000 Ang=   0.00 deg.
 Keep R1 ints in memory in canonical form, NReq=28647586.
 Requested convergence on RMS density matrix=1.00D-08 within  32 cycles.
 Requested convergence on MAX density matrix=1.00D-06.
 Requested convergence on             energy=1.00D-06.
 No special actions if energy rises.
 SCF Done:  E(RwB97XD) =  -78.5789142670     A.U. after    1 cycles
            NFock=  1  Conv=0.18D-09     -V/T= 2.0049
 QCSCF skips out because SCF is already converged.
 DoSCS=F DFT=T ScalE2(SS,OS)=  1.000000  1.000000
 ExpMin= 3.60D-02 ExpMax= 4.56D+03 ExpMxC= 6.82D+02 IAcc=3 IRadAn=         5 AccDes= 0.00D+00
 HarFok:  IExCor=  205 AccDes= 0.00D+00 IRadAn=         5 IDoV=-2 UseB2=F ITyADJ=14
 ICtDFT= 12500011 ScaDFX=  1.000000  1.000000  1.000000  1.000000
 Range of M.O.s used for correlation:     3    72
 NBasis=    72 NAE=     8 NBE=     8 NFC=     2 NFV=     0
 NROrb=     70 NOA=     6 NOB=     6 NVA=    64 NVB=    64

 **** Warning!!: The largest alpha MO coefficient is  0.33757721D+02

 Keep R1, R2, and R3 ints in memory in canonical form, NReq=46963142.
     8 initial guesses have been made.
 Convergence on wavefunction:    0.000001000000000
 Iteration     1 Dimension     8 NMult     0 NNew      8
 CISAX will form     8 AO SS matrices at one time.
 New state      2 was old state      4
 Iteration     2 Dimension    12 NMult     8 NNew      4
 Iteration     3 Dimension    16 NMult    12 NNew      4
 Iteration     4 Dimension    20 NMult    16 NNew      4
 Iteration     5 Dimension    24 NMult    20 NNew      4
 Iteration     6 Dimension    28 NMult    24 NNew      4
 Iteration     7 Dimension    32 NMult    28 NNew      4
 Iteration     8 Dimension    36 NMult    32 NNew      4
 No map to state      2
 Iteration     9 Dimension    40 NMult    36 NNew      4
 Iteration    10 Dimension    42 NMult    40 NNew      2
 Iteration    11 Dimension    44 NMult    42 NNew      2
 Iteration    12 Dimension    46 NMult    44 NNew      2
 Iteration    13 Dimension    48 NMult    46 NNew      2
 Iteration    14 Dimension    50 NMult    48 NNew      2
 Iteration    15 Dimension    52 NMult    50 NNew      2
 Iteration    16 Dimension    54 NMult    52 NNew      2
 Iteration    17 Dimension    56 NMult    54 NNew      2
 ***********************************************************************
 Excited states from <AA,BB:AA,BB> singles matrix:
 ***********************************************************************
 
 Ground to excited state transition densities written to RWF  633
 Ground to excited state transition electric dipole moments (Au):
       state          X           Y           Z        Dip. S.      Osc.
         1         0.0000      0.0001      0.6449      0.4159      0.0718
         2        -0.7034     -1.2220      0.0000      1.9879      0.3603
 Ground to excited state transition velocity dipole moments (Au):
       state          X           Y           Z        Dip. S.      Osc.
         1        -0.0000     -0.0000     -0.1703      0.0290      0.0747
         2         0.1874      0.3255     -0.0000      0.1411      0.3460
 Ground to excited state transition magnetic dipole moments (Au):
       state          X           Y           Z
         1         0.0002      0.0013     -0.0000
         2        -0.0063      0.0038     -0.0002
 Ground to excited state transition velocity quadrupole moments (Au):
       state          XX          YY          ZZ          XY          XZ          YZ
         1         0.0010      0.0010     -0.0011     -0.0000     -0.0007     -0.0008
         2         0.0019      0.0017      0.0006      0.0013     -0.0011     -0.0018
 <0|del|b> * <b|rxdel|0> + <0|del|b> * <b|delr+rdel|0>
 Rotatory Strengths (R) in cgs (10**-40 erg-esu-cm/Gauss)
       state          XX          YY          ZZ    R(velocity)    E-M Angle
         1         0.0099      0.0008     -0.0000      0.0036       90.00
         2         2.0491     -1.9644      0.0497      0.0448       90.00
 1/2[<0|r|b>*<b|rxdel|0> + (<0|rxdel|b>*<b|r|0>)*]
 Rotatory Strengths (R) in cgs (10**-40 erg-esu-cm/Gauss)
       state          XX          YY          ZZ     R(length)
         1        -0.0000     -0.0000      0.0105      0.0035
         2        -3.1190      3.2561      0.0000      0.0457
  1/2[<0|del|b>*<b|r|0> + (<0|r|b>*<b|del|0>)*] (Au)
       state          X           Y           Z        Dip. S.   Osc.(frdel)
         1        -0.0000     -0.0000     -0.1098      0.1098      0.0732
         2        -0.1318     -0.3978     -0.0000      0.5296      0.3531

 Excitation energies and oscillator strengths:
 
 Excited state symmetry could not be determined.
 Excited State   1:      Singlet-?Sym    7.0432 eV  176.03 nm  f=0.0718  <S**2>=0.000
       8 ->  9         0.68489
       8 -> 16        -0.11022
       8 -> 21        -0.11552
 This state for optimization and/or second-order correction.
 Total Energy, E(TD-HF/TD-DFT) =  -78.3200823323    
 Copying the excited state density for this state as the 1-particle RhoCI density.
 
 Excited state symmetry could not be determined.
 Excited State   2:      Singlet-?Sym    7.3978 eV  167.60 nm  f=0.3603  <S**2>=0.000
       8 -> 10         0.70203
 SavETr:  write IOETrn=   770 NScale= 10 NData=  16 NLR=1 NState=    2 LETran=      46.
          IDoAtm=111111
          Differentiating once with respect to electric field.
                with respect to dipole field.
          Differentiating once with respect to nuclear coordinates.
 Keep R1 ints in memory in canonical form, NReq=28651466.
          There are     1 degrees of freedom in the 1st order CPHF.  IDoFFX=0 NUNeed=     1.
 LinEq1:  Iter=  0 NonCon=     1 RMS=3.22D-02 Max=2.82D-01 NDo=     1
 AX will form     1 AO Fock derivatives at one time.
 LinEq1:  Iter=  1 NonCon=     1 RMS=4.33D-03 Max=3.09D-02 NDo=     1
 LinEq1:  Iter=  2 NonCon=     1 RMS=3.47D-04 Max=2.43D-03 NDo=     1
 LinEq1:  Iter=  3 NonCon=     1 RMS=3.04D-05 Max=2.84D-04 NDo=     1
 LinEq1:  Iter=  4 NonCon=     1 RMS=1.85D-05 Max=2.40D-04 NDo=     1
 LinEq1:  Iter=  5 NonCon=     1 RMS=3.10D-06 Max=2.65D-05 NDo=     1
 LinEq1:  Iter=  6 NonCon=     1 RMS=4.42D-07 Max=5.10D-06 NDo=     1
 LinEq1:  Iter=  7 NonCon=     1 RMS=7.15D-08 Max=7.22D-07 NDo=     1
 LinEq1:  Iter=  8 NonCon=     1 RMS=1.21D-08 Max=7.32D-08 NDo=     1
 LinEq1:  Iter=  9 NonCon=     1 RMS=2.03D-09 Max=1.81D-08 NDo=     1
 LinEq1:  Iter= 10 NonCon=     1 RMS=4.44D-10 Max=3.54D-09 NDo=     1
 LinEq1:  Iter= 11 NonCon=     0 RMS=6.36D-11 Max=4.13D-10 NDo=     1
 Linear equations converged to 1.000D-10 1.000D-09 after    11 iterations.
 End of Minotr F.D. properties file   721 does not exist.
 End of Minotr F.D. properties file   722 does not exist.
 End of Minotr F.D. properties file   788 does not exist.

 **********************************************************************

            Population analysis using the SCF Density.

 **********************************************************************

 Alpha  occ. eigenvalues --  -10.28578 -10.28477  -0.86146  -0.67924  -0.56706
 Alpha  occ. eigenvalues --   -0.50139  -0.45024  -0.35511
 Alpha virt. eigenvalues --    0.05098   0.05920   0.06515   0.06628   0.08575
 Alpha virt. eigenvalues --    0.12538   0.13895   0.17231   0.17716   0.17922
 Alpha virt. eigenvalues --    0.19850   0.21437   0.22246   0.22625   0.24772
 Alpha virt. eigenvalues --    0.27627   0.42085   0.42728   0.51128   0.52899
 Alpha virt. eigenvalues --    0.60483   0.61521   0.62103   0.68113   0.73103
 Alpha virt. eigenvalues --    0.81231   0.83575   0.84351   0.86982   0.93577
 Alpha virt. eigenvalues --    1.07543   1.17771   1.18993   1.48167   1.48515
 Alpha virt. eigenvalues --    1.52416   1.68925   1.69381   1.69914   1.70551
 Alpha virt. eigenvalues --    1.84458   1.90823   2.04834   2.16167   2.19461
 Alpha virt. eigenvalues --    2.21886   2.26429   2.30123   2.49461   2.52534
 Alpha virt. eigenvalues --    2.66442   2.66915   2.77888   2.79057   2.82906
 Alpha virt. eigenvalues --    2.94635   2.99207   3.24257   3.49436   3.79171
 Alpha virt. eigenvalues --    3.94902   4.27076  23.92656  24.32798
     Molecular Orbital Coefficients:
                           1         2         3         4         5
                           O         O         O         O         O
     Eigenvalues --   -10.28578 -10.28477  -0.86146  -0.67924  -0.56706
   1 1   C  1S          0.23504   0.51215  -0.08704   0.06826  -0.00004
   2        2S          0.19333   0.42067  -0.13538   0.10754  -0.00007
   3        2PX         0.00032  -0.00033   0.02278   0.03707   0.13177
   4        2PY         0.00056  -0.00057   0.03998   0.06393  -0.07518
   5        2PZ        -0.00000  -0.00000   0.00011  -0.00018  -0.00000
   6        3S          0.00702   0.01642   0.34899  -0.28457   0.00023
   7        3PX        -0.00168   0.00135   0.03225   0.05382   0.18355
   8        3PY        -0.00289   0.00241   0.05636   0.09303  -0.10467
   9        3PZ         0.00001   0.00001   0.00012  -0.00023  -0.00000
  10        4S         -0.00265  -0.00519   0.19232  -0.21374   0.00018
  11        4PX         0.00025  -0.00054   0.00707   0.02619   0.10621
  12        4PY         0.00039  -0.00094   0.01228   0.04532  -0.06063
  13        4PZ        -0.00000  -0.00000   0.00006  -0.00012  -0.00000
  14        5S          0.00061   0.00340  -0.00899   0.01118  -0.00037
  15        5PX        -0.00021   0.00068  -0.00103  -0.00079  -0.00096
  16        5PY        -0.00018   0.00115  -0.00246  -0.00158   0.00036
  17        5PZ         0.00000  -0.00000  -0.00000  -0.00000   0.00000
  18        6D 0       -0.00025  -0.00230  -0.01060   0.00618   0.00000
  19        6D+1       -0.00000  -0.00000  -0.00000   0.00003   0.00007
  20        6D-1       -0.00000  -0.00000  -0.00001   0.00005  -0.00004
  21        6D+2        0.00079  -0.00062  -0.00431  -0.00522   0.00215
  22        6D-2       -0.00136   0.00107   0.00733   0.00897   0.00144
  23 2   H  1S         -0.00012   0.00025   0.05420  -0.08995   0.09853
  24        2S         -0.00208  -0.00269   0.06390  -0.11601   0.13792
  25        3S          0.00139   0.00195  -0.00311  -0.01343   0.02676
  26        4S         -0.00100  -0.00036   0.00629  -0.01054   0.01259
  27        5PX         0.00068   0.00089  -0.00394   0.00999  -0.00285
  28        5PY        -0.00114  -0.00138   0.01077  -0.00948   0.01349
  29        5PZ         0.00000   0.00000  -0.00002   0.00003  -0.00005
  30 3   H  1S         -0.00012   0.00025   0.05455  -0.09017  -0.09918
  31        2S         -0.00207  -0.00273   0.06425  -0.11616  -0.13859
  32        3S          0.00137   0.00197  -0.00302  -0.01342  -0.02690
  33        4S         -0.00114  -0.00034   0.00685  -0.01039  -0.01272
  34        5PX        -0.00134  -0.00166   0.01139  -0.01322  -0.01313
  35        5PY         0.00002   0.00008   0.00197   0.00392  -0.00420
  36        5PZ         0.00000   0.00000  -0.00002   0.00003   0.00005
  37 4   C  1S          0.51208  -0.23520  -0.08669  -0.06862  -0.00005
  38        2S          0.42083  -0.19302  -0.13485  -0.10812  -0.00008
  39        2PX        -0.00003  -0.00046  -0.02311   0.03668   0.12883
  40        2PY        -0.00005  -0.00080  -0.04013   0.06416  -0.07493
  41        2PZ        -0.00000   0.00000   0.00010   0.00018  -0.00000
  42        3S          0.01594  -0.00784   0.34786   0.28627   0.00025
  43        3PX         0.00031   0.00213  -0.03257   0.05346   0.17999
  44        3PY         0.00059   0.00369  -0.05651   0.09333  -0.10449
  45        3PZ         0.00001  -0.00000   0.00012   0.00023  -0.00000
  46        4S         -0.00546   0.00218   0.19200   0.21532   0.00010
  47        4PX         0.00019  -0.00056  -0.00728   0.02606   0.10441
  48        4PY         0.00037  -0.00096  -0.01252   0.04550  -0.06051
  49        4PZ        -0.00000   0.00000   0.00006   0.00012  -0.00000
  50        5S          0.00309  -0.00205  -0.01076  -0.01127   0.00036
  51        5PX        -0.00030   0.00058   0.00130  -0.00099  -0.00230
  52        5PY        -0.00073   0.00100   0.00297  -0.00142   0.00116
  53        5PZ        -0.00000   0.00000  -0.00000   0.00000  -0.00000
  54        6D 0       -0.00167   0.00158  -0.01056  -0.00622  -0.00001
  55        6D+1        0.00000  -0.00000   0.00000   0.00003   0.00007
  56        6D-1        0.00001  -0.00000   0.00001   0.00005  -0.00004
  57        6D+2        0.00014   0.00099  -0.00439   0.00501  -0.00252
  58        6D-2       -0.00029  -0.00170   0.00745  -0.00883  -0.00153
  59 5   H  1S          0.00008  -0.00026   0.05366   0.09057  -0.09665
  60        2S         -0.00330   0.00069   0.06335   0.11697  -0.13531
  61        3S          0.00230  -0.00059  -0.00303   0.01352  -0.02657
  62        4S         -0.00094  -0.00042   0.00612   0.01044  -0.01354
  63        5PX        -0.00109   0.00024   0.00383   0.00995  -0.00274
  64        5PY         0.00175  -0.00030  -0.01072  -0.00970   0.01325
  65        5PZ         0.00001  -0.00000  -0.00002  -0.00003   0.00005
  66 6   H  1S          0.00009  -0.00027   0.05357   0.08989   0.09643
  67        2S         -0.00323   0.00069   0.06333   0.11619   0.13507
  68        3S          0.00223  -0.00058  -0.00286   0.01355   0.02657
  69        4S         -0.00110  -0.00043   0.00668   0.01062   0.01368
  70        5PX         0.00204  -0.00037  -0.01123  -0.01329  -0.01280
  71        5PY        -0.00007   0.00005  -0.00201   0.00382  -0.00425
  72        5PZ         0.00001  -0.00000  -0.00002  -0.00003  -0.00005
                           6         7         8         9        10
                           O         O         O         V         V
     Eigenvalues --    -0.50139  -0.45024  -0.35511   0.05098   0.05920
   1 1   C  1S         -0.00687   0.00020   0.00008  -0.01576  -0.00020
   2        2S         -0.01097   0.00033   0.00013  -0.02699  -0.00033
   3        2PX         0.09529  -0.12454   0.00031  -0.01586  -0.00011
   4        2PY         0.16895   0.06952   0.00053  -0.02773  -0.00019
   5        2PZ        -0.00048   0.00001   0.17792   0.00008  -0.16180
   6        3S          0.03539  -0.00099  -0.00037   0.11318   0.00102
   7        3PX         0.13354  -0.17440   0.00045  -0.02261  -0.00019
   8        3PY         0.23667   0.09742   0.00077  -0.03916  -0.00033
   9        3PZ        -0.00072   0.00001   0.28085   0.00014  -0.25372
  10        4S         -0.02470  -0.00067  -0.00071  -0.03712   0.00176
  11        4PX         0.07441  -0.13073   0.00035  -0.01761  -0.00024
  12        4PY         0.13254   0.07343   0.00060  -0.03299  -0.00042
  13        4PZ        -0.00043   0.00001   0.24667   0.00003  -0.41974
  14        5S          0.00941  -0.00033   0.00018   2.02110  -0.00720
  15        5PX        -0.00156  -0.02524   0.00003  -0.15539  -0.00257
  16        5PY        -0.00133   0.01458   0.00005  -0.34194  -0.00456
  17        5PZ        -0.00001   0.00000   0.02860   0.00146  -0.76650
  18        6D 0        0.00042  -0.00001   0.00002   0.00119   0.00001
  19        6D+1       -0.00000  -0.00008   0.01120   0.00001   0.01446
  20        6D-1       -0.00000   0.00005   0.01952   0.00001   0.02514
  21        6D+2       -0.00893   0.02863  -0.00001  -0.00248  -0.00001
  22        6D-2        0.01588   0.01638   0.00002   0.00446   0.00002
  23 2   H  1S         -0.07659  -0.11566   0.00000   0.00714  -0.00028
  24        2S         -0.11234  -0.17574  -0.00004   0.00075  -0.00060
  25        3S         -0.03872  -0.06720  -0.00014  -0.00300  -0.00041
  26        4S         -0.00661   0.00402  -0.00010  -1.28113  -0.00435
  27        5PX         0.01238   0.00037   0.00002  -0.01087  -0.00000
  28        5PY        -0.00088  -0.00964   0.00006   0.00855  -0.00001
  29        5PZ         0.00000   0.00004   0.01512  -0.00003  -0.02304
  30 3   H  1S         -0.07372   0.11702  -0.00000   0.00724  -0.00028
  31        2S         -0.10794   0.17763  -0.00004  -0.00003  -0.00059
  32        3S         -0.03776   0.06808  -0.00015   0.00760  -0.00040
  33        4S         -0.00715  -0.00385  -0.00010  -1.21692  -0.00417
  34        5PX        -0.00661   0.00866   0.00004   0.01273  -0.00001
  35        5PY         0.01044   0.00428   0.00005  -0.00514  -0.00001
  36        5PZ        -0.00000  -0.00004   0.01515  -0.00003  -0.02300
  37 4   C  1S         -0.00723   0.00010   0.00008  -0.01591   0.00020
  38        2S         -0.01154   0.00015   0.00013  -0.02724   0.00033
  39        2PX        -0.09589   0.12638  -0.00031   0.01609  -0.00011
  40        2PY        -0.16848  -0.07053  -0.00053   0.02779  -0.00019
  41        2PZ        -0.00047   0.00001   0.17788   0.00006   0.16181
  42        3S          0.03685  -0.00047  -0.00036   0.11407  -0.00101
  43        3PX        -0.13435   0.17761  -0.00045   0.02314  -0.00019
  44        3PY        -0.23571  -0.09902  -0.00077   0.03936  -0.00033
  45        3PZ        -0.00072   0.00001   0.28072   0.00012   0.25375
  46        4S         -0.02272   0.00022  -0.00070  -0.03406  -0.00177
  47        4PX        -0.07534   0.13313  -0.00035   0.01743  -0.00024
  48        4PY        -0.13257  -0.07457  -0.00060   0.03141  -0.00041
  49        4PZ        -0.00043   0.00001   0.24661  -0.00002   0.41964
  50        5S          0.00711  -0.00013   0.00018   2.00394   0.00750
  51        5PX         0.00179   0.02511  -0.00003   0.16318  -0.00256
  52        5PY         0.00169  -0.01457  -0.00005   0.35797  -0.00451
  53        5PZ        -0.00001   0.00000   0.02869   0.00143   0.76709
  54        6D 0        0.00041  -0.00000   0.00002   0.00121  -0.00001
  55        6D+1        0.00000   0.00008  -0.01120  -0.00001   0.01448
  56        6D-1        0.00000  -0.00005  -0.01947  -0.00001   0.02520
  57        6D+2       -0.00872   0.02884  -0.00001  -0.00247   0.00001
  58        6D-2        0.01563   0.01641   0.00002   0.00443  -0.00002
  59 5   H  1S         -0.07619  -0.11690  -0.00000   0.00716   0.00028
  60        2S         -0.11195  -0.17777  -0.00004   0.00105   0.00060
  61        3S         -0.03821  -0.06825  -0.00014  -0.00424   0.00041
  62        4S         -0.00642   0.00359  -0.00010  -1.29709   0.00416
  63        5PX        -0.01234  -0.00020  -0.00002   0.01090  -0.00000
  64        5PY         0.00105   0.00973  -0.00006  -0.00867  -0.00001
  65        5PZ         0.00000   0.00004   0.01505  -0.00004   0.02307
  66 6   H  1S         -0.07409   0.11868  -0.00001   0.00709   0.00028
  67        2S         -0.10893   0.18061  -0.00005  -0.00060   0.00060
  68        3S         -0.03772   0.06957  -0.00015   0.00644   0.00040
  69        4S         -0.00715  -0.00327  -0.00010  -1.22428   0.00401
  70        5PX         0.00682  -0.00873  -0.00004  -0.01284  -0.00001
  71        5PY        -0.01024  -0.00436  -0.00004   0.00510  -0.00000
  72        5PZ        -0.00000  -0.00004   0.01501  -0.00003   0.02296
                          11        12        13        14        15
                           V         V         V         V         V
     Eigenvalues --     0.06515   0.06628   0.08575   0.12538   0.13895
   1 1   C  1S         -0.01619   0.00026  -0.00005  -0.00002  -0.00757
   2        2S         -0.02691   0.00044  -0.00009  -0.00004  -0.01100
   3        2PX        -0.00464   0.03210  -0.02179  -0.00006   0.01228
   4        2PY        -0.00951  -0.01831   0.01244  -0.00010   0.02109
   5        2PZ         0.00034  -0.00000  -0.00000  -0.07167  -0.00003
   6        3S          0.09945  -0.00172   0.00045   0.00011   0.01030
   7        3PX        -0.01644   0.06871  -0.01590  -0.00002   0.00973
   8        3PY        -0.03189  -0.03897   0.00916  -0.00004   0.01624
   9        3PZ         0.00054  -0.00000  -0.00000  -0.06692  -0.00002
  10        4S          0.13216  -0.00092  -0.00125   0.00055   0.31606
  11        4PX         0.07444  -0.01633  -0.10648  -0.00034   0.02409
  12        4PY         0.13053   0.00657   0.06077  -0.00056   0.04185
  13        4PZ         0.00072   0.00000  -0.00000  -0.29543  -0.00001
  14        5S          5.17569  -0.15092  -0.04563   0.00248   2.24411
  15        5PX        -0.03690   1.06412  -6.04545   0.00092  -0.99081
  16        5PY        -0.07603  -0.62669   3.48841   0.00181  -1.68779
  17        5PZ         0.00640  -0.00010   0.00001   0.64804   0.00304
  18        6D 0        0.00633  -0.00014  -0.00000   0.00001   0.00234
  19        6D+1       -0.00002  -0.00003   0.00005  -0.00576   0.00001
  20        6D-1       -0.00004   0.00002  -0.00003  -0.01005   0.00001
  21        6D+2        0.00172   0.00906  -0.00428   0.00001  -0.01121
  22        6D-2       -0.00262   0.00530  -0.00234  -0.00001   0.01920
  23 2   H  1S          0.00231   0.00302  -0.00387  -0.00002  -0.02146
  24        2S          0.01428  -0.00054  -0.07451   0.00021   0.00267
  25        3S         -0.08524  -0.04621   0.71224  -0.00105  -0.44740
  26        4S         -2.29939  -2.61678   7.76254  -0.00115  -0.81479
  27        5PX        -0.00498  -0.00279   0.00307   0.00001  -0.01164
  28        5PY         0.00995   0.00799  -0.00834  -0.00001  -0.00575
  29        5PZ         0.00002  -0.00004   0.00002   0.00350   0.00001
  30 3   H  1S          0.00223  -0.00317   0.00399  -0.00002  -0.02165
  31        2S          0.01497  -0.00089   0.07405   0.00021   0.00323
  32        3S         -0.08820   0.05163  -0.70817  -0.00111  -0.45327
  33        4S         -2.23407   2.70928  -7.75712  -0.00131  -0.82237
  34        5PX         0.01081  -0.00876   0.00890  -0.00001   0.00090
  35        5PY         0.00058  -0.00166   0.00140   0.00000  -0.01293
  36        5PZ         0.00002   0.00004  -0.00003   0.00347   0.00001
  37 4   C  1S          0.01613  -0.00029  -0.00012  -0.00002  -0.00758
  38        2S          0.02679  -0.00048  -0.00022  -0.00004  -0.01102
  39        2PX        -0.00473   0.03217   0.02230   0.00006  -0.01222
  40        2PY        -0.00958  -0.01824  -0.01271   0.00010  -0.02128
  41        2PZ        -0.00034   0.00000   0.00000  -0.07186  -0.00003
  42        3S         -0.09870   0.00179   0.00111   0.00011   0.01075
  43        3PX        -0.01691   0.06970   0.01834   0.00002  -0.00977
  44        3PY        -0.03208  -0.03934  -0.01009   0.00004  -0.01688
  45        3PZ        -0.00054   0.00000   0.00000  -0.06718  -0.00003
  46        4S         -0.13477   0.00196  -0.00208   0.00055   0.30749
  47        4PX         0.07479  -0.02025   0.10317   0.00033  -0.02070
  48        4PY         0.13049   0.00932  -0.06020   0.00055  -0.03655
  49        4PZ        -0.00072   0.00000  -0.00000  -0.29582  -0.00001
  50        5S         -5.15949   0.14079   0.00437   0.00202   2.35814
  51        5PX        -0.02019   0.94605   6.00440  -0.00087   0.96841
  52        5PY        -0.09775  -0.56112  -3.49548  -0.00173   1.65070
  53        5PZ        -0.00639   0.00009  -0.00002   0.64724   0.00299
  54        6D 0       -0.00635   0.00015   0.00002   0.00001   0.00246
  55        6D+1       -0.00002  -0.00003  -0.00005   0.00575  -0.00001
  56        6D-1       -0.00004   0.00002   0.00003   0.01000  -0.00001
  57        6D+2       -0.00184  -0.00887  -0.00420   0.00001  -0.01111
  58        6D-2        0.00264  -0.00518  -0.00239  -0.00001   0.01897
  59 5   H  1S         -0.00202  -0.00316  -0.00388  -0.00002  -0.02109
  60        2S         -0.01441   0.00178  -0.07278   0.00020   0.00420
  61        3S          0.09056   0.02619   0.69933  -0.00102  -0.44945
  62        4S          2.31793   2.48110   7.74892  -0.00112  -0.80261
  63        5PX        -0.00492  -0.00268  -0.00287  -0.00001   0.01153
  64        5PY         0.00995   0.00790   0.00834   0.00001   0.00571
  65        5PZ        -0.00002   0.00004   0.00002   0.00351   0.00001
  66 6   H  1S         -0.00199   0.00318   0.00395  -0.00002  -0.02147
  67        2S         -0.01411  -0.00110   0.07167   0.00021   0.00433
  68        3S          0.08636  -0.03125  -0.69022  -0.00107  -0.45598
  69        4S          2.19546  -2.56473  -7.72415  -0.00128  -0.80046
  70        5PX         0.01070  -0.00866  -0.00881   0.00001  -0.00088
  71        5PY         0.00063  -0.00167  -0.00154  -0.00000   0.01284
  72        5PZ        -0.00002  -0.00004  -0.00002   0.00353   0.00001
                          16        17        18        19        20
                           V         V         V         V         V
     Eigenvalues --     0.17231   0.17716   0.17922   0.19850   0.21437
   1 1   C  1S          0.01441   0.01232   0.00025   0.00002  -0.02688
   2        2S          0.02372   0.02069   0.00043   0.00003  -0.04428
   3        2PX        -0.00438  -0.00200  -0.00014  -0.06238  -0.01472
   4        2PY        -0.00769  -0.00308  -0.00023   0.03605  -0.02515
   5        2PZ         0.00006   0.00358  -0.12608  -0.00000  -0.00010
   6        3S         -0.05809  -0.08079  -0.00177   0.00012   0.09477
   7        3PX         0.01298  -0.00672  -0.00014  -0.09768  -0.01913
   8        3PY         0.02174  -0.01090  -0.00023   0.05629  -0.03140
   9        3PZ        -0.00017   0.00420  -0.14553  -0.00000   0.00021
  10        4S         -0.28146   0.19493   0.00534  -0.00163   0.83254
  11        4PX        -0.05782   0.11755   0.00197  -0.25584  -0.05086
  12        4PY        -0.09787   0.20686   0.00349   0.14891  -0.09078
  13        4PZ         0.00093   0.01773  -0.63824  -0.00002  -0.00128
  14        5S          5.30811 -26.67838  -0.65334  -0.07494 -33.68050
  15        5PX        -0.19523  -5.51359  -0.14529   2.82323  -3.45068
  16        5PY        -0.32124  -9.58853  -0.25242  -1.64094  -6.12109
  17        5PZ         0.00434  -0.04714   2.09856   0.00001  -0.00465
  18        6D 0        0.03544  -0.00676  -0.00011  -0.00007  -0.02181
  19        6D+1        0.00004  -0.00015   0.00539  -0.00018  -0.00004
  20        6D-1        0.00007  -0.00026   0.00934   0.00010  -0.00007
  21        6D+2       -0.00243  -0.01121  -0.00038   0.00800   0.00521
  22        6D-2        0.00431   0.01922   0.00065   0.00441  -0.00885
  23 2   H  1S         -0.03107  -0.01211  -0.00062  -0.01739   0.00878
  24        2S          0.05724  -0.00033   0.00035   0.11257  -0.15768
  25        3S         -1.00702  -0.11744  -0.00929  -0.57783   0.69736
  26        4S         -1.65052  -3.72829  -0.10933  -4.13368   1.79879
  27        5PX        -0.00425  -0.01158  -0.00034   0.00711   0.00064
  28        5PY         0.00688  -0.00894  -0.00022  -0.00110  -0.00100
  29        5PZ         0.00002   0.00017  -0.00518  -0.00006   0.00001
  30 3   H  1S         -0.03103  -0.01227  -0.00063   0.01762   0.00893
  31        2S          0.05748  -0.00170   0.00033  -0.11305  -0.15942
  32        3S         -1.01124  -0.11782  -0.00934   0.58637   0.71390
  33        4S         -1.67263  -3.72556  -0.10951   4.15626   1.88957
  34        5PX         0.00812  -0.00190  -0.00001   0.00440  -0.00126
  35        5PY        -0.00024  -0.01441  -0.00040  -0.00556   0.00016
  36        5PZ         0.00002   0.00017  -0.00521   0.00006   0.00001
  37 4   C  1S          0.01452  -0.01221  -0.00025   0.00003   0.02885
  38        2S          0.02389  -0.02053  -0.00043   0.00004   0.04733
  39        2PX         0.00435  -0.00151  -0.00012  -0.06269  -0.01698
  40        2PY         0.00762  -0.00214  -0.00020   0.03601  -0.02937
  41        2PZ         0.00009  -0.00358   0.12615   0.00000   0.00008
  42        3S         -0.05849   0.08065   0.00178   0.00000  -0.09954
  43        3PX        -0.01235  -0.00649  -0.00013  -0.09648  -0.02090
  44        3PY        -0.02146  -0.01018  -0.00020   0.05552  -0.03693
  45        3PZ        -0.00013  -0.00420   0.14564   0.00000  -0.00023
  46        4S         -0.27901  -0.19754  -0.00533  -0.00193  -0.92384
  47        4PX         0.05494   0.12091   0.00206  -0.26322  -0.07013
  48        4PY         0.09378   0.21159   0.00360   0.15142  -0.11842
  49        4PZ         0.00107  -0.01770   0.63830   0.00001   0.00116
  50        5S          4.55692  26.75090   0.65414   0.05488  33.75772
  51        5PX         0.33361  -5.52364  -0.14562   2.75790  -3.51233
  52        5PY         0.56308  -9.62131  -0.25361  -1.60984  -6.02231
  53        5PZ         0.00409   0.04720  -2.09855  -0.00003   0.00470
  54        6D 0        0.03521   0.00753   0.00013  -0.00001   0.02104
  55        6D+1       -0.00004  -0.00015   0.00537  -0.00017  -0.00004
  56        6D-1       -0.00007  -0.00027   0.00937   0.00010  -0.00007
  57        6D+2       -0.00216   0.01118   0.00038  -0.00801  -0.00444
  58        6D-2        0.00412  -0.01926  -0.00065  -0.00445   0.00819
  59 5   H  1S         -0.03125   0.01129   0.00060   0.01748  -0.00707
  60        2S          0.05636  -0.00084  -0.00040  -0.11129   0.16627
  61        3S         -1.00467   0.10098   0.00908   0.56595  -0.64672
  62        4S         -1.71638   3.71989   0.10962   4.06285  -1.93427
  63        5PX         0.00440  -0.01163  -0.00034   0.00719  -0.00000
  64        5PY        -0.00662  -0.00921  -0.00022  -0.00114  -0.00065
  65        5PZ         0.00002  -0.00017   0.00513   0.00006  -0.00001
  66 6   H  1S         -0.03126   0.01148   0.00061  -0.01734  -0.00673
  67        2S          0.05595   0.00098  -0.00035   0.11219   0.16516
  68        3S         -1.00674   0.09839   0.00901  -0.56711  -0.63136
  69        4S         -1.72670   3.68867   0.10881  -4.07038  -1.86630
  70        5PX        -0.00774  -0.00213  -0.00002   0.00458  -0.00042
  71        5PY         0.00052  -0.01457  -0.00041  -0.00568  -0.00027
  72        5PZ         0.00002  -0.00017   0.00509  -0.00006  -0.00001
                          21        22        23        24        25
                           V         V         V         V         V
     Eigenvalues --     0.22246   0.22625   0.24772   0.27627   0.42085
   1 1   C  1S          0.03435  -0.00295  -0.00020   0.03585   0.00036
   2        2S          0.05386  -0.00460  -0.00035   0.05767   0.00057
   3        2PX         0.03471  -0.06166   0.08781   0.02377   0.12862
   4        2PY         0.07357   0.02756  -0.04983   0.03947  -0.07670
   5        2PZ        -0.00025   0.00002   0.00001  -0.00072   0.00000
   6        3S         -0.09321   0.00777   0.00135  -0.11651  -0.00059
   7        3PX         0.03244  -0.13707   0.06850  -0.00496   0.10979
   8        3PY         0.08495   0.07019  -0.03792  -0.00940  -0.06751
   9        3PZ        -0.00035   0.00003   0.00001  -0.00067   0.00000
  10        4S         -1.64011   0.14759  -0.00522  -1.37448  -0.04593
  11        4PX         0.30481  -0.03292   0.70792   0.31209   1.88658
  12        4PY         0.53218  -0.04380  -0.40588   0.52481  -1.13422
  13        4PZ        -0.00198   0.00017   0.00004  -0.00621  -0.00000
  14        5S          2.02096   0.04277   0.06143 -20.63214   0.18598
  15        5PX         0.80942  11.43309   1.25151  -1.99432  11.89561
  16        5PY        -0.91587  -6.54179  -0.73282  -3.48976  -6.81418
  17        5PZ         0.00050  -0.00002   0.00007  -0.00569  -0.00012
  18        6D 0       -0.01177   0.00113   0.00011  -0.01836  -0.00003
  19        6D+1       -0.00001  -0.00014  -0.00030   0.00001  -0.00025
  20        6D-1       -0.00000   0.00009   0.00017   0.00003   0.00015
  21        6D+2        0.00593   0.01741   0.05187   0.01642   0.00954
  22        6D-2       -0.00779   0.01114   0.03012  -0.02698   0.00603
  23 2   H  1S          0.03019  -0.02785  -0.06173   0.06107  -0.01981
  24        2S          0.14172   0.11576  -0.10827   0.05127  -0.04497
  25        3S          1.10782  -1.61653  -1.95953   2.30798  -4.55670
  26        4S         -1.84252  -9.99057  -0.85014   0.46387  -8.29570
  27        5PX         0.01198  -0.00252  -0.00113   0.01213  -0.01086
  28        5PY        -0.00594  -0.00826   0.03058  -0.02000   0.02652
  29        5PZ        -0.00001  -0.00006  -0.00018  -0.00005  -0.00043
  30 3   H  1S          0.03324   0.02197   0.06072   0.06204   0.01876
  31        2S          0.11773  -0.13708   0.10875   0.05282   0.03852
  32        3S          1.35271   1.37729   1.94964   2.35046   4.55036
  33        4S         -0.08432  10.12022   0.81724   0.48722   8.32762
  34        5PX        -0.00950   0.00756  -0.02685  -0.02404  -0.02827
  35        5PY         0.00870   0.00478  -0.01409   0.00030  -0.00436
  36        5PZ        -0.00000   0.00006   0.00018  -0.00004   0.00042
  37 4   C  1S          0.03307  -0.00305   0.00089  -0.03557  -0.00072
  38        2S          0.05174  -0.00477   0.00141  -0.05725  -0.00113
  39        2PX        -0.03585   0.06105   0.09033   0.02479  -0.12797
  40        2PY        -0.07089  -0.02703  -0.05319   0.03948   0.07295
  41        2PZ        -0.00027   0.00002  -0.00001   0.00072  -0.00000
  42        3S         -0.08912   0.00780  -0.00262   0.11609   0.00116
  43        3PX        -0.03298   0.13510   0.07281  -0.00329  -0.11162
  44        3PY        -0.08192  -0.06950  -0.04210  -0.00894   0.06326
  45        3PZ        -0.00035   0.00003  -0.00001   0.00067  -0.00000
  46        4S         -1.58792   0.15134  -0.03705   1.35688   0.07544
  47        4PX        -0.31803   0.03351   0.71685   0.31612  -1.89198
  48        4PY        -0.52382   0.04799  -0.42909   0.52110   1.05298
  49        4PZ        -0.00208   0.00019  -0.00009   0.00617   0.00001
  50        5S          0.14009  -0.11048  -0.06025  20.65209  -0.05855
  51        5PX        -0.65893 -11.36777   1.15310  -1.94754 -11.69332
  52        5PY         1.23461   6.57713  -0.67197  -3.47427   6.88696
  53        5PZ         0.00007   0.00006  -0.00009   0.00571   0.00022
  54        6D 0       -0.01321   0.00113  -0.00040   0.01806   0.00023
  55        6D+1        0.00002   0.00014  -0.00030   0.00001   0.00023
  56        6D-1        0.00000  -0.00008   0.00017   0.00003  -0.00013
  57        6D+2        0.00749   0.01776  -0.05166  -0.01599   0.00918
  58        6D-2       -0.00773   0.01146  -0.03019   0.02633   0.00450
  59 5   H  1S          0.02963  -0.02834   0.06271  -0.06082  -0.01955
  60        2S          0.13082   0.11402   0.11291  -0.05109  -0.04108
  61        3S          1.12051  -1.62386   2.00386  -2.28756  -4.48206
  62        4S         -1.72273  -9.95633   0.70868  -0.46151  -8.23750
  63        5PX        -0.01197   0.00232  -0.00139   0.01174   0.00953
  64        5PY         0.00551   0.00794   0.03106  -0.01983  -0.02594
  65        5PZ        -0.00001  -0.00006   0.00018   0.00005  -0.00041
  66 6   H  1S          0.03578   0.02220  -0.06079  -0.06233   0.01906
  67        2S          0.11087  -0.13625  -0.10902  -0.05258   0.04291
  68        3S          1.44068   1.37785  -1.92641  -2.34850   4.42873
  69        4S          0.06736  10.04715  -0.69772  -0.51181   8.11068
  70        5PX         0.01020  -0.00763  -0.02679  -0.02372   0.02707
  71        5PY        -0.00825  -0.00447  -0.01443   0.00002   0.00391
  72        5PZ         0.00000   0.00006  -0.00018   0.00004   0.00041
                          26        27        28        29        30
                           V         V         V         V         V
     Eigenvalues --     0.42728   0.51128   0.52899   0.60483   0.61521
   1 1   C  1S         -0.03466   0.00743   0.00012   0.00023   0.03420
   2        2S         -0.05484   0.01857   0.00020  -0.00288   0.05941
   3        2PX         0.06338  -0.02993   0.01292   0.05626  -0.02727
   4        2PY         0.10626  -0.05111  -0.00726   0.09736  -0.04653
   5        2PZ        -0.00019  -0.00000  -0.00000   0.00062   0.00062
   6        3S          0.05954  -0.15255  -0.00037   0.22631  -0.09946
   7        3PX         0.07837  -0.13478  -0.09765   0.24398   0.04310
   8        3PY         0.13171  -0.23352   0.05816   0.42145   0.07378
   9        3PZ        -0.00024  -0.00028  -0.00001   0.00228   0.00206
  10        4S          4.12497  -0.66788   0.02352  -0.31547  -1.79056
  11        4PX         1.64222   0.60689  -0.34034  -0.31053  -0.36781
  12        4PY         2.80171   1.02365   0.21299  -0.55762  -0.66342
  13        4PZ        -0.00148  -0.00126  -0.00002  -0.00435  -0.00923
  14        5S         -8.95530   2.46218  -0.01732   1.43134  15.61359
  15        5PX        -2.13952  -0.57997   1.78723   0.10523   1.12716
  16        5PY        -4.06392  -0.99638  -1.05790   0.06970   1.97441
  17        5PZ         0.00612   0.00239   0.00011   0.00346   0.01497
  18        6D 0        0.00828  -0.00590  -0.00028  -0.04606  -0.03035
  19        6D+1        0.00003   0.00001  -0.00014   0.00003   0.00008
  20        6D-1        0.00006   0.00002   0.00008   0.00005   0.00014
  21        6D+2        0.02588   0.01281  -0.01391  -0.00268  -0.03131
  22        6D-2       -0.04418  -0.02280  -0.00798   0.00435   0.05320
  23 2   H  1S          0.00844   0.03291   0.07037   0.06306   0.07798
  24        2S          0.14929   0.69379   0.95274   0.73731   1.16229
  25        3S         -0.03732  -0.78674  -1.88998  -1.17300  -2.17417
  26        4S         -1.94231  -0.60473  -1.79420  -0.35940  -0.97773
  27        5PX         0.02392   0.01694  -0.05298  -0.01169  -0.00542
  28        5PY         0.00332   0.03362   0.02083   0.00559   0.04264
  29        5PZ         0.00002  -0.00008  -0.00022  -0.00011  -0.00033
  30 3   H  1S          0.00975   0.03268  -0.06916   0.06280   0.07875
  31        2S          0.15471   0.70174  -0.93831   0.73969   1.17884
  32        3S          0.05677  -0.78220   1.86272  -1.13624  -2.18340
  33        4S         -1.74130  -0.60280   1.77016  -0.29735  -1.00762
  34        5PX        -0.00955   0.02152  -0.04442   0.01118   0.04094
  35        5PY         0.02195   0.03165   0.03599  -0.00730   0.01580
  36        5PZ         0.00003  -0.00008   0.00022  -0.00010  -0.00033
  37 4   C  1S          0.03493   0.00700  -0.00003   0.00215  -0.03443
  38        2S          0.05535   0.01784  -0.00011   0.00044  -0.05995
  39        2PX         0.06000   0.02901   0.01185  -0.05541  -0.03007
  40        2PY         0.10810   0.04974  -0.00744  -0.09457  -0.05243
  41        2PZ         0.00019  -0.00001   0.00000   0.00063  -0.00039
  42        3S         -0.06234  -0.15272   0.00093   0.21842   0.11552
  43        3PX         0.07549   0.13412  -0.09739  -0.24552   0.02635
  44        3PY         0.13335   0.23251   0.05627  -0.42342   0.04540
  45        3PZ         0.00023  -0.00029   0.00001   0.00233  -0.00112
  46        4S         -4.12269  -0.56942  -0.01547  -0.33770   1.76927
  47        4PX         1.58916  -0.64279  -0.32327   0.31700  -0.34941
  48        4PY         2.82821  -1.08891   0.21398   0.55471  -0.61469
  49        4PZ         0.00147  -0.00123   0.00004  -0.00469   0.00779
  50        5S          8.99353   1.96032  -0.01329   2.28173 -15.51177
  51        5PX        -2.46000   0.66111   1.85062  -0.15776   1.07422
  52        5PY        -3.88055   1.12459  -1.11059  -0.14515   1.95531
  53        5PZ        -0.00607   0.00233  -0.00014   0.00431  -0.01427
  54        6D 0       -0.00875  -0.00643  -0.00011  -0.04855   0.02766
  55        6D+1        0.00004  -0.00002  -0.00014  -0.00003   0.00004
  56        6D-1        0.00006  -0.00002   0.00008  -0.00005   0.00008
  57        6D+2       -0.02530   0.01376   0.01407  -0.00338   0.03011
  58        6D-2        0.04372  -0.02396   0.00804   0.00640  -0.05211
  59 5   H  1S         -0.00729   0.03180  -0.07109   0.06817  -0.07408
  60        2S         -0.14226   0.68435  -0.96296   0.80557  -1.11731
  61        3S         -0.10885  -0.74384   1.93844  -1.30977   2.08937
  62        4S          1.71755  -0.62439   1.82026  -0.43855   0.94408
  63        5PX         0.02415  -0.01796  -0.05224   0.01199  -0.00397
  64        5PY         0.00250  -0.03306   0.02141  -0.00723   0.04226
  65        5PZ        -0.00003  -0.00007   0.00023  -0.00012   0.00032
  66 6   H  1S         -0.00794   0.03234   0.07003   0.06778  -0.07527
  67        2S         -0.14649   0.69894   0.94346   0.80117  -1.13563
  68        3S          0.04602  -0.76193  -1.90938  -1.27309   2.13107
  69        4S          1.95061  -0.62383  -1.77180  -0.35296   1.00225
  70        5PX        -0.00889  -0.02063  -0.04355  -0.01152   0.03895
  71        5PY         0.02191  -0.03199   0.03553   0.00647   0.01671
  72        5PZ        -0.00002  -0.00007  -0.00022  -0.00011   0.00032
                          31        32        33        34        35
                           V         V         V         V         V
     Eigenvalues --     0.62103   0.68113   0.73103   0.81231   0.83575
   1 1   C  1S         -0.00003   0.00015  -0.00011   0.02065  -0.00470
   2        2S         -0.00008   0.00026  -0.00023   0.04303  -0.00945
   3        2PX         0.00019  -0.00029   0.14572   0.11014  -0.17737
   4        2PY         0.00033  -0.00048  -0.08388   0.19803   0.09337
   5        2PZ        -0.15707  -0.18995  -0.00000  -0.00033   0.00002
   6        3S          0.00149  -0.00089   0.00267  -0.46077   0.08007
   7        3PX         0.00096  -0.00050   0.61319   0.36755  -0.61343
   8        3PY         0.00167  -0.00083  -0.35214   0.66270   0.33579
   9        3PZ        -0.66171  -0.69510  -0.00002  -0.00093   0.00002
  10        4S         -0.00178   0.00015  -0.00602   0.16707  -0.13748
  11        4PX        -0.00170  -0.00008  -1.36443  -1.10550   4.14969
  12        4PY        -0.00298  -0.00027   0.78234  -1.98249  -2.31746
  13        4PZ         0.96292   1.59858   0.00004   0.00423  -0.00018
  14        5S          0.01747   0.08775   0.08579   3.00031   0.08138
  15        5PX         0.00138   0.00752   0.55254   1.06210   5.42096
  16        5PY         0.00192   0.01313  -0.29651   1.61381  -3.19096
  17        5PZ        -0.38685  -1.04895  -0.00000  -0.00173   0.00007
  18        6D 0       -0.00020  -0.00035  -0.00019  -0.00447   0.00075
  19        6D+1       -0.02758   0.00763   0.00014  -0.00004  -0.00063
  20        6D-1       -0.04803   0.01318  -0.00008  -0.00008   0.00040
  21        6D+2       -0.00006  -0.00012   0.06727   0.03597  -0.05691
  22        6D-2        0.00011   0.00020   0.03915  -0.06260  -0.02484
  23 2   H  1S          0.00040   0.00041  -0.03808   0.03023   0.05882
  24        2S          0.00404   0.00368  -0.13573   0.03945  -0.32213
  25        3S         -0.00829  -0.01097   1.39540  -1.21338  -4.07268
  26        4S         -0.00142  -0.00321  -1.22118   1.22708  -3.15066
  27        5PX        -0.00007  -0.00009  -0.02984   0.06246   0.00962
  28        5PY         0.00003  -0.00014   0.01206  -0.02397  -0.07312
  29        5PZ         0.00186  -0.00649   0.00007   0.00024  -0.00139
  30 3   H  1S          0.00040   0.00041   0.03855   0.02755  -0.06344
  31        2S          0.00403   0.00371   0.14261   0.01521   0.32739
  32        3S         -0.00817  -0.01095  -1.41383  -1.09400   4.18185
  33        4S         -0.00116  -0.00336   1.22119   1.35157   3.00951
  34        5PX         0.00006  -0.00007  -0.02494  -0.05114   0.08203
  35        5PY        -0.00005  -0.00015   0.01962   0.04365   0.02397
  36        5PZ         0.00180  -0.00690  -0.00008   0.00025   0.00132
  37 4   C  1S         -0.00007  -0.00015  -0.00016  -0.02267  -0.00417
  38        2S         -0.00015  -0.00027  -0.00030  -0.04712  -0.00838
  39        2PX        -0.00023  -0.00028   0.15124   0.11691   0.17013
  40        2PY        -0.00039  -0.00049  -0.08709   0.19684  -0.09673
  41        2PZ        -0.15737   0.18976   0.00000   0.00034   0.00000
  42        3S          0.00162   0.00095   0.00243   0.49524   0.06972
  43        3PX        -0.00092  -0.00051   0.63077   0.38874   0.58467
  44        3PY        -0.00159  -0.00088  -0.36376   0.65409  -0.34459
  45        3PZ        -0.66269   0.69427   0.00001   0.00093  -0.00002
  46        4S          0.00070  -0.00027  -0.00313  -0.23884  -0.14795
  47        4PX         0.00123  -0.00009  -1.41109  -1.16872  -4.03970
  48        4PY         0.00205  -0.00023   0.80873  -1.97130   2.35130
  49        4PZ         0.96498  -1.59701  -0.00004  -0.00427  -0.00001
  50        5S         -0.00200  -0.08745  -0.06749  -2.94940   0.21128
  51        5PX        -0.00000   0.00730   0.50864   0.86847  -5.38406
  52        5PY         0.00067   0.01314  -0.26804   1.73531   3.12169
  53        5PZ        -0.38844   1.04842   0.00002   0.00175   0.00012
  54        6D 0       -0.00017   0.00034  -0.00001   0.00476   0.00061
  55        6D+1        0.02763   0.00759   0.00014  -0.00005   0.00055
  56        6D-1        0.04800   0.01320  -0.00008  -0.00009  -0.00035
  57        6D+2       -0.00002   0.00011  -0.06797  -0.03694  -0.05266
  58        6D-2        0.00004  -0.00020  -0.03911   0.06422  -0.02496
  59 5   H  1S          0.00031  -0.00040   0.03997  -0.02884   0.05841
  60        2S          0.00265  -0.00355   0.15321  -0.01384  -0.32073
  61        3S         -0.00571   0.01075  -1.45974   1.12038  -4.01779
  62        4S         -0.00033   0.00305   1.20457  -1.37505  -3.08268
  63        5PX         0.00006  -0.00009  -0.02887   0.06527  -0.01083
  64        5PY         0.00003  -0.00014   0.01332  -0.02542   0.07276
  65        5PZ         0.00185   0.00610  -0.00007  -0.00026  -0.00132
  66 6   H  1S          0.00031  -0.00040  -0.04045  -0.03115  -0.06141
  67        2S          0.00257  -0.00363  -0.15059  -0.03151   0.33520
  68        3S         -0.00554   0.01089   1.46894   1.22170   4.02464
  69        4S          0.00014   0.00337  -1.21620  -1.24886   2.97721
  70        5PX        -0.00000  -0.00008  -0.02677  -0.05524  -0.08021
  71        5PY         0.00007  -0.00015   0.01835   0.04273  -0.02537
  72        5PZ         0.00199   0.00629   0.00007  -0.00025   0.00127
                          36        37        38        39        40
                           V         V         V         V         V
     Eigenvalues --     0.84351   0.86982   0.93577   1.07543   1.17771
   1 1   C  1S          0.08010   0.00180   0.08473  -0.00000   0.00001
   2        2S          0.16104   0.00356   0.16499  -0.00001   0.00001
   3        2PX         0.03434  -0.06922  -0.07450  -0.00033   0.00000
   4        2PY         0.07801   0.03863  -0.13096   0.00019   0.00006
   5        2PZ        -0.00023   0.00000   0.00005   0.00009   0.04558
   6        3S         -1.35119  -0.02938  -1.44747   0.00008   0.00018
   7        3PX         0.02893  -0.23962  -0.10622  -0.00073  -0.00030
   8        3PY         0.11598   0.12777  -0.18663   0.00044  -0.00015
   9        3PZ        -0.00007   0.00004   0.00108   0.00072   0.10695
  10        4S          2.84989   0.07566   7.58069  -0.00038  -0.00425
  11        4PX        -0.02885  -3.15728   1.49864   0.00170   0.00453
  12        4PY        -0.72993   1.85037   2.59560  -0.00112   0.00105
  13        4PZ         0.00194  -0.00001   0.00012  -0.00077  -0.13397
  14        5S         -1.94417  -0.08483 -12.71828  -0.00011  -0.00021
  15        5PX         0.40394   4.92238  -1.81874   0.00712   0.00225
  16        5PY         0.12491  -2.87537  -3.08545  -0.00410  -0.00208
  17        5PZ        -0.00115  -0.00001   0.00101   0.00022   0.01401
  18        6D 0       -0.01731  -0.00031  -0.14146  -0.00000   0.00205
  19        6D+1       -0.00024   0.00139  -0.00015   0.37531  -0.22797
  20        6D-1       -0.00026  -0.00083  -0.00026  -0.21594  -0.42850
  21        6D+2        0.04701   0.05572  -0.06480   0.00142  -0.00056
  22        6D-2       -0.09054   0.03095   0.11183   0.00081   0.00112
  23 2   H  1S          0.03639   0.05736   0.02747   0.00006   0.00011
  24        2S         -0.17283   1.83167  -0.42605   0.00112   0.00055
  25        3S         -0.96787  -0.85503  -0.01276  -0.00638  -0.00015
  26        4S          0.78449  -3.79798  -0.05097  -0.00704  -0.00181
  27        5PX         0.08365  -0.06915   0.02799   0.00086  -0.00123
  28        5PY        -0.09143   0.02895  -0.11229   0.00113  -0.00016
  29        5PZ         0.00032   0.00181   0.00048   0.25175   0.22397
  30 3   H  1S          0.03183  -0.05575   0.02814  -0.00006   0.00015
  31        2S         -0.06234  -1.83952  -0.41478  -0.00109   0.00201
  32        3S         -0.52765   0.84509  -0.03961   0.00648   0.00368
  33        4S          1.05094   3.80565  -0.09977   0.00710   0.00145
  34        5PX        -0.11019  -0.06488  -0.11182  -0.00054   0.00041
  35        5PY         0.02820   0.04517  -0.03334  -0.00131  -0.00148
  36        5PZ         0.00054  -0.00177   0.00048  -0.25217   0.19128
  37 4   C  1S          0.07949   0.00151  -0.08456   0.00000   0.00001
  38        2S          0.15990   0.00314  -0.16484   0.00001   0.00001
  39        2PX        -0.03124   0.06524  -0.07576  -0.00029  -0.00000
  40        2PY        -0.07361  -0.04201  -0.13074   0.00017  -0.00006
  41        2PZ        -0.00022  -0.00001  -0.00005  -0.00008   0.04545
  42        3S         -1.34256  -0.02806   1.44815  -0.00007   0.00012
  43        3PX        -0.01916   0.21537  -0.10786  -0.00055   0.00031
  44        3PY        -0.10078  -0.13365  -0.18556   0.00033   0.00014
  45        3PZ        -0.00004  -0.00002  -0.00106   0.00005   0.10836
  46        4S          2.86270   0.01536  -7.57638   0.00037  -0.00386
  47        4PX        -0.00498   3.17096   1.47830  -0.00067  -0.00459
  48        4PY         0.67429  -1.80190   2.60136   0.00025  -0.00124
  49        4PZ         0.00182   0.00004  -0.00013   0.00018  -0.13944
  50        5S         -2.13121   0.05833  12.72476   0.00008  -0.00074
  51        5PX        -0.36203  -4.91049  -1.75108   0.00395  -0.00213
  52        5PY        -0.05233   2.82201  -3.12306  -0.00227   0.00220
  53        5PZ        -0.00109   0.00000  -0.00099  -0.00010   0.01583
  54        6D 0       -0.01659   0.00101   0.14065   0.00000   0.00208
  55        6D+1        0.00023  -0.00134  -0.00012   0.37479   0.22863
  56        6D-1        0.00027   0.00080  -0.00026  -0.21562   0.42919
  57        6D+2        0.04401   0.05679   0.06639  -0.00142  -0.00058
  58        6D-2       -0.08786   0.02961  -0.11361  -0.00082   0.00116
  59 5   H  1S          0.03605   0.05670  -0.02789  -0.00007   0.00010
  60        2S         -0.17493   1.81346   0.41422  -0.00160   0.00056
  61        3S         -0.93694  -0.84826   0.02434   0.00445  -0.00009
  62        4S          0.74488  -3.75738   0.10099   0.00491  -0.00179
  63        5PX        -0.08160   0.06714   0.02736   0.00080   0.00124
  64        5PY         0.09156  -0.02881  -0.11094   0.00109   0.00014
  65        5PZ         0.00031   0.00177  -0.00049  -0.24965   0.22653
  66 6   H  1S          0.03117  -0.05420  -0.02728   0.00007   0.00015
  67        2S         -0.06836  -1.80071   0.43014   0.00156   0.00201
  68        3S         -0.48368   0.80205   0.01292  -0.00453   0.00362
  69        4S          1.00288   3.77654   0.04923  -0.00494   0.00138
  70        5PX         0.10832   0.06259  -0.11012  -0.00055  -0.00042
  71        5PY        -0.02670  -0.04576  -0.03182  -0.00125   0.00148
  72        5PZ         0.00053  -0.00175  -0.00045   0.25094   0.19331
                          41        42        43        44        45
                           V         V         V         V         V
     Eigenvalues --     1.18993   1.48167   1.48515   1.52416   1.68925
   1 1   C  1S         -0.00000  -0.00222   0.00038   0.00020  -0.02515
   2        2S         -0.00000  -0.00407   0.00076   0.00044  -0.06153
   3        2PX         0.00047  -0.00910   0.04273   0.06330  -0.01906
   4        2PY        -0.00027  -0.02726  -0.02080  -0.03720  -0.03145
   5        2PZ         0.00215   0.00044  -0.00005  -0.00000  -0.00288
   6        3S          0.00003  -0.00950  -0.00165  -0.00218   0.62960
   7        3PX         0.00300   0.01849  -0.02446   0.05474   0.19257
   8        3PY        -0.00180   0.03699   0.00745  -0.03147   0.36213
   9        3PZ         0.00455   0.00082  -0.00009  -0.00001  -0.00231
  10        4S         -0.00054   0.97242  -0.10302  -0.03385  -0.07613
  11        4PX        -0.05291  -0.19451   1.74288   0.52887  -0.18277
  12        4PY         0.03084  -0.75619  -0.90185  -0.31791  -0.36635
  13        4PZ        -0.00612   0.00139  -0.00017   0.00003  -0.01735
  14        5S         -0.00025  -0.89082   0.09535   0.04503   0.38975
  15        5PX        -0.04940   0.11146  -0.53529  -0.68836   0.08148
  16        5PY         0.02853   0.35893   0.25731   0.41175   0.10033
  17        5PZ         0.00058  -0.00084   0.00010  -0.00003   0.00740
  18        6D 0        0.00014  -0.50305   0.05486   0.00377   0.61639
  19        6D+1       -0.30786  -0.00157   0.00275   0.00160  -0.00150
  20        6D-1        0.15037  -0.00336  -0.00111  -0.00087  -0.00228
  21        6D+2       -0.00154   0.15887  -0.24845  -0.46578   0.12984
  22        6D-2       -0.00078  -0.33945  -0.09172  -0.26746  -0.19655
  23 2   H  1S          0.00042   0.03811   0.00748   0.07937  -0.01243
  24        2S          0.01310  -0.85030  -0.70119  -0.86744   0.29726
  25        3S          0.03534   0.17414  -0.35128   0.57554  -0.25968
  26        4S          0.03143   0.32227   0.50489   0.75369  -0.17897
  27        5PX        -0.00259   0.08220  -0.46113  -0.20474   0.11559
  28        5PY        -0.00230   0.12391  -0.19243   0.00748   0.06872
  29        5PZ        -0.32763   0.00055   0.00314   0.00107   0.01388
  30 3   H  1S         -0.00040   0.03396  -0.01600  -0.08012   0.00146
  31        2S         -0.01286  -0.67002   0.87433   0.87980   0.26178
  32        3S         -0.03502   0.22553   0.30595  -0.57784  -0.18467
  33        4S         -0.03142   0.17992  -0.56277  -0.75014  -0.15850
  34        5PX         0.00074   0.04878  -0.07632  -0.10632  -0.00743
  35        5PY         0.00322   0.24550   0.45023   0.17523   0.18223
  36        5PZ         0.34780  -0.00013  -0.00320  -0.00111   0.01348
  37 4   C  1S          0.00000  -0.00217   0.00023  -0.00002  -0.01634
  38        2S          0.00000  -0.00393   0.00046  -0.00001  -0.04344
  39        2PX        -0.00045   0.01090  -0.03572   0.06618   0.05459
  40        2PY         0.00026   0.02631   0.01664  -0.03965   0.09632
  41        2PZ         0.00217   0.00044  -0.00005  -0.00001   0.00157
  42        3S          0.00001  -0.00921   0.00078  -0.00072   0.51430
  43        3PX        -0.00300  -0.02263   0.03020   0.04142  -0.21277
  44        3PY         0.00179  -0.04101  -0.00914  -0.02405  -0.34761
  45        3PZ         0.00569   0.00081  -0.00009  -0.00000  -0.00001
  46        4S         -0.00052   0.91100  -0.10184   0.01403  -0.52703
  47        4PX         0.05230   0.23299  -1.65934   0.67931   0.55555
  48        4PY        -0.03074   0.78387   0.85874  -0.42280   0.94971
  49        4PZ        -0.00763   0.00144  -0.00015  -0.00006   0.01419
  50        5S         -0.00030  -0.78588   0.09580  -0.02165  -0.29280
  51        5PX         0.04871  -0.14702   0.46757  -0.71487  -0.21912
  52        5PY        -0.02833  -0.38088  -0.21781   0.43779  -0.40675
  53        5PZ         0.00106  -0.00086   0.00010   0.00005  -0.00648
  54        6D 0        0.00014  -0.50723   0.05657   0.00445   0.43235
  55        6D+1        0.31052   0.00161  -0.00254   0.00177  -0.00420
  56        6D-1       -0.15152   0.00332   0.00099  -0.00104  -0.00693
  57        6D+2       -0.00149   0.17131  -0.20094   0.48300   0.16176
  58        6D-2       -0.00076  -0.33552  -0.06470   0.28459  -0.31482
  59 5   H  1S          0.00041   0.03685   0.00210  -0.08150   0.03874
  60        2S          0.01303  -0.82801  -0.60646   0.94779  -0.05346
  61        3S          0.03475   0.15614  -0.39080  -0.54682   0.01415
  62        4S          0.03091   0.31135   0.42808  -0.78723   0.21169
  63        5PX         0.00260  -0.08855   0.43764  -0.25086  -0.27543
  64        5PY         0.00232  -0.12352   0.18940  -0.00367  -0.23065
  65        5PZ        -0.32903   0.00050   0.00297  -0.00134  -0.00681
  66 6   H  1S         -0.00039   0.03604  -0.01119   0.08053   0.02628
  67        2S         -0.01277  -0.68902   0.77690  -0.92787  -0.00947
  68        3S         -0.03408   0.23314   0.33899   0.54094  -0.04033
  69        4S         -0.03063   0.20462  -0.48507   0.76818   0.18997
  70        5PX        -0.00074  -0.05384   0.06800  -0.11955  -0.06941
  71        5PY        -0.00325  -0.23982  -0.42899   0.22747  -0.31381
  72        5PZ         0.35038  -0.00012  -0.00302   0.00137  -0.00646
                          46        47        48        49        50
                           V         V         V         V         V
     Eigenvalues --     1.69381   1.69914   1.70551   1.84458   1.90823
   1 1   C  1S          0.01192  -0.00354   0.00195   0.00010   0.00000
   2        2S          0.02193  -0.00712   0.00389   0.00031   0.00000
   3        2PX        -0.07689   0.03084  -0.00957   0.00037  -0.00026
   4        2PY        -0.14048   0.01723  -0.01593   0.00064   0.00013
   5        2PZ         0.01197  -0.00462  -0.11409  -0.12442  -0.00202
   6        3S         -0.08383   0.04469  -0.02149  -0.00373  -0.00001
   7        3PX         0.10220   0.27742  -0.00488  -0.00209  -0.00224
   8        3PY         0.05380  -0.15987   0.00384  -0.00371   0.00122
   9        3PZ         0.00614  -0.00249  -0.06217  -0.11867  -0.00183
  10        4S         -0.83896   0.14769  -0.12019   0.00191  -0.00041
  11        4PX        -0.78219  -0.14442  -0.07992   0.00195   0.00246
  12        4PY        -1.22034   0.38101  -0.14881   0.00360  -0.00166
  13        4PZ         0.08423  -0.03145  -0.75220  -0.22577  -0.00514
  14        5S         -1.59797   0.38184  -0.19155   0.00076   0.00048
  15        5PX         0.24504  -0.44077   0.04491  -0.00074   0.00052
  16        5PY         0.59665   0.12972   0.06063  -0.00143  -0.00011
  17        5PZ        -0.03617   0.01304   0.29740   0.05079   0.00187
  18        6D 0       -0.22817   0.07262  -0.03857  -0.00649  -0.00005
  19        6D+1        0.01588  -0.00290  -0.13609   0.20796   0.55154
  20        6D-1        0.02584  -0.01115  -0.23079   0.37115  -0.30917
  21        6D+2        0.08834  -0.36647   0.02241  -0.00142   0.00254
  22        6D-2       -0.30267  -0.15428  -0.02332   0.00245   0.00148
  23 2   H  1S          0.11671   0.14516   0.00765  -0.00033  -0.00116
  24        2S         -0.68618  -0.40714  -0.06210  -0.00061   0.00163
  25        3S          0.56583   0.70021   0.03961   0.00061  -0.00313
  26        4S          0.76112   0.14857   0.08132   0.00006   0.00043
  27        5PX         0.36115   0.42632   0.01951  -0.00045  -0.00281
  28        5PY         0.35453   0.09947   0.03453   0.00065  -0.00183
  29        5PZ        -0.05535   0.01807   0.51663   0.54546  -0.51231
  30 3   H  1S          0.05440  -0.18073   0.01396  -0.00037   0.00116
  31        2S         -0.48692   0.66846  -0.08378  -0.00063  -0.00160
  32        3S          0.25493  -0.89073   0.06958   0.00053   0.00310
  33        4S          0.65240  -0.44165   0.09335   0.00022  -0.00034
  34        5PX         0.16465   0.06992   0.01639   0.00081   0.00022
  35        5PY         0.29239  -0.55947   0.05185  -0.00015   0.00346
  36        5PZ        -0.05357   0.02384   0.51073   0.53605   0.53124
  37 4   C  1S         -0.02289   0.00396  -0.00234   0.00011  -0.00000
  38        2S         -0.04968   0.00832  -0.00486   0.00031  -0.00000
  39        2PX        -0.05687   0.02968  -0.00882  -0.00040  -0.00027
  40        2PY        -0.10615   0.01636  -0.01471  -0.00070   0.00011
  41        2PZ        -0.01246   0.00469   0.11542  -0.12325  -0.00052
  42        3S          0.38379  -0.05790   0.03185  -0.00384  -0.00002
  43        3PX         0.00066   0.27309  -0.00766   0.00210  -0.00217
  44        3PY        -0.12573  -0.15449  -0.00175   0.00369   0.00128
  45        3PZ        -0.00654   0.00241   0.06051  -0.11507  -0.00166
  46        4S          0.68571  -0.14082   0.11519   0.00358   0.00042
  47        4PX        -0.59514  -0.20229  -0.07194  -0.00244   0.00267
  48        4PY        -0.88202   0.40409  -0.13923  -0.00434  -0.00189
  49        4PZ        -0.08517   0.03153   0.75335  -0.22438   0.00134
  50        5S          1.61578  -0.37240   0.19123  -0.00303  -0.00051
  51        5PX         0.17667  -0.44105   0.04340   0.00120   0.00035
  52        5PY         0.46756   0.13650   0.05653   0.00220   0.00002
  53        5PZ         0.03642  -0.01304  -0.29754   0.04952  -0.00096
  54        6D 0        0.49401  -0.07945   0.04689  -0.00669  -0.00006
  55        6D+1        0.01483  -0.00277  -0.13287  -0.21369   0.55706
  56        6D-1        0.02411  -0.01091  -0.22624  -0.35947  -0.32222
  57        6D+2       -0.01030   0.36367  -0.01964  -0.00134  -0.00257
  58        6D-2        0.16880   0.15862   0.01881   0.00238  -0.00145
  59 5   H  1S         -0.10757  -0.14716  -0.00709  -0.00024   0.00115
  60        2S          0.73960   0.39139   0.06375  -0.00102  -0.00152
  61        3S         -0.62135  -0.72585  -0.03975   0.00102   0.00317
  62        4S         -0.74826  -0.14088  -0.08100   0.00006  -0.00058
  63        5PX         0.26079   0.43035   0.01625   0.00064  -0.00280
  64        5PY         0.27579   0.10317   0.03181  -0.00052  -0.00185
  65        5PZ         0.05743  -0.01814  -0.51869   0.52978   0.52846
  66 6   H  1S         -0.04465   0.18011  -0.01342  -0.00025  -0.00115
  67        2S          0.54146  -0.64444   0.08373  -0.00102   0.00144
  68        3S         -0.30890   0.90788  -0.07164   0.00100  -0.00307
  69        4S         -0.64640   0.42793  -0.09270   0.00017   0.00050
  70        5PX         0.15038   0.06628   0.01624  -0.00081   0.00022
  71        5PY         0.16418  -0.55924   0.04781   0.00025   0.00347
  72        5PZ         0.05564  -0.02407  -0.51286   0.53755  -0.52713
                          51        52        53        54        55
                           V         V         V         V         V
     Eigenvalues --     2.04834   2.16167   2.19461   2.21886   2.26429
   1 1   C  1S          0.00238  -0.00026   0.00013   0.00740  -0.00000
   2        2S          0.00569  -0.00060  -0.00053  -0.00327  -0.00000
   3        2PX        -0.14001   0.00347   0.23821  -0.01788   0.00582
   4        2PY        -0.24430   0.00592  -0.14074  -0.00954  -0.00341
   5        2PZ         0.00186   0.11441  -0.00009  -0.00141   0.00107
   6        3S          0.15876   0.00043   0.01209   0.20639   0.00005
   7        3PX        -0.01278   0.00165  -0.24316   0.10896  -0.00778
   8        3PY        -0.02863   0.00306   0.14219   0.17961   0.00415
   9        3PZ        -0.00026  -0.01299   0.00005   0.00039  -0.00088
  10        4S         -4.48023   0.08381  -0.02697  -0.56421  -0.00001
  11        4PX        -1.27832   0.02527   0.00990   0.05520   0.00353
  12        4PY        -2.24286   0.04431  -0.00976   0.08599  -0.00215
  13        4PZ         0.00385   0.16156  -0.00005  -0.00074   0.00025
  14        5S          9.61259  -0.16657   0.01281  -0.41843  -0.00037
  15        5PX         1.20217  -0.02167   4.21097  -0.06398   0.05936
  16        5PY         2.11239  -0.04110  -2.42270   0.25109  -0.03441
  17        5PZ         0.00048  -0.10230  -0.00002  -0.00066  -0.00036
  18        6D 0        0.58857  -0.01338   0.00635   0.14798   0.00001
  19        6D+1        0.00864   0.48736  -0.01455   0.00182   0.73970
  20        6D-1        0.01526   0.86467   0.00802   0.00173  -0.41792
  21        6D+2       -0.04818  -0.00156   0.65945   0.26463   0.01413
  22        6D-2        0.08004   0.00310   0.34841  -0.51166   0.00791
  23 2   H  1S         -0.28735   0.00434  -0.39718   0.38550  -0.00811
  24        2S          0.93598  -0.01236   1.28057  -0.60247   0.02333
  25        3S         -1.09497   0.01632  -2.04171   0.71380  -0.03436
  26        4S          0.15805  -0.00661  -2.82494   0.15296  -0.03728
  27        5PX         0.38096  -0.00682  -0.20082  -0.46833  -0.00422
  28        5PY         0.18295  -0.00236  -0.17682  -0.19943  -0.00335
  29        5PZ         0.00395   0.30440   0.00937   0.00056  -0.50182
  30 3   H  1S         -0.28547   0.00451   0.42124   0.35663   0.00806
  31        2S          0.94838  -0.01328  -1.32725  -0.51383  -0.02361
  32        3S         -1.09229   0.01746   2.08148   0.56914   0.03438
  33        4S          0.13992  -0.00451   2.82811  -0.06108   0.03738
  34        5PX        -0.02652   0.00130   0.04718   0.05042   0.00053
  35        5PY         0.42153  -0.00700   0.22259  -0.52464   0.00531
  36        5PZ         0.00370   0.29164  -0.00957   0.00140   0.50853
  37 4   C  1S         -0.00245   0.00026   0.00002   0.00524  -0.00001
  38        2S         -0.00529   0.00059  -0.00056  -0.00750  -0.00001
  39        2PX        -0.13961   0.00335  -0.24356   0.00967  -0.00593
  40        2PY        -0.24292   0.00597   0.14112  -0.00297   0.00346
  41        2PZ        -0.00177  -0.11196  -0.00001  -0.00142  -0.00019
  42        3S         -0.16261  -0.00028   0.00767   0.21403   0.00000
  43        3PX        -0.02183   0.00182   0.20838  -0.15160   0.00693
  44        3PY        -0.03048   0.00292  -0.14486  -0.24845  -0.00441
  45        3PZ         0.00024   0.01137  -0.00003   0.00029   0.00064
  46        4S          4.46441  -0.08376  -0.00608  -0.36519   0.00012
  47        4PX        -1.28591   0.02540  -0.02527  -0.11643  -0.00370
  48        4PY        -2.23151   0.04411  -0.00197  -0.18672   0.00211
  49        4PZ        -0.00375  -0.15853   0.00000  -0.00092  -0.00088
  50        5S         -9.58393   0.16595   0.01409  -0.44476   0.00147
  51        5PX         1.21505  -0.02457  -4.15274   0.09461  -0.05862
  52        5PY         2.10072  -0.03947   2.42038  -0.19748   0.03417
  53        5PZ        -0.00047   0.10170   0.00003  -0.00042   0.00050
  54        6D 0       -0.57707   0.01330   0.00298   0.10193  -0.00006
  55        6D+1        0.00880   0.49909   0.01380  -0.00181  -0.71876
  56        6D-1        0.01543   0.86302  -0.00852  -0.00169   0.42285
  57        6D+2        0.03820   0.00217   0.63385   0.22474   0.01347
  58        6D-2       -0.07327  -0.00320   0.35059  -0.44487   0.00811
  59 5   H  1S          0.28042  -0.00429  -0.39997   0.36096  -0.00834
  60        2S         -0.91442   0.01253   1.26369  -0.54265   0.02340
  61        3S          1.07847  -0.01704  -2.02426   0.67611  -0.03450
  62        4S         -0.15201   0.00473  -2.79146   0.11741  -0.03690
  63        5PX         0.37529  -0.00645   0.19252   0.47434   0.00396
  64        5PY         0.17449  -0.00206   0.18350   0.17826   0.00339
  65        5PZ        -0.00421  -0.30374   0.00943   0.00061  -0.49545
  66 6   H  1S          0.27695  -0.00397   0.41459   0.33394   0.00781
  67        2S         -0.90265   0.01158  -1.26837  -0.45174  -0.02218
  68        3S          1.06757  -0.01558   2.03798   0.53647   0.03336
  69        4S         -0.15767   0.00659   2.75295  -0.09901   0.03617
  70        5PX        -0.03826   0.00143  -0.07328  -0.07656  -0.00108
  71        5PY         0.41029  -0.00675  -0.21954   0.51497  -0.00531
  72        5PZ        -0.00407  -0.30311  -0.00910   0.00142   0.49062
                          56        57        58        59        60
                           V         V         V         V         V
     Eigenvalues --     2.30123   2.49461   2.52534   2.66442   2.66915
   1 1   C  1S          0.03649   0.02708   0.00009  -0.00027   0.00011
   2        2S          0.07246   0.05371   0.00044  -0.00052   0.00054
   3        2PX        -0.06710   0.18994  -0.43439  -0.33113   0.30221
   4        2PY        -0.11553   0.33254   0.24748   0.18840  -0.17440
   5        2PZ         0.00089  -0.00079   0.00000   0.00001   0.00000
   6        3S         -0.27005  -0.30666  -0.00512   0.00538  -0.00809
   7        3PX        -0.58420  -0.15808   1.11507  -0.51068   1.30659
   8        3PY        -1.00628  -0.25835  -0.64204   0.29304  -0.74980
   9        3PZ         0.00112   0.00006  -0.00002   0.00001  -0.00003
  10        4S         -1.69759  -0.13692  -0.02140   0.00452   0.00967
  11        4PX        -0.44091   0.05896  -0.00965  -0.13702   2.30088
  12        4PY        -0.75409   0.13072  -0.00764   0.07868  -1.32390
  13        4PZ         0.00300  -0.00014   0.00002   0.00001  -0.00001
  14        5S         -1.02585  -0.53507   0.04694  -0.01511  -0.02149
  15        5PX         0.23482   0.00893  -0.54742   0.04962  -1.60469
  16        5PY         0.43586  -0.01447   0.33142  -0.03258   0.92283
  17        5PZ        -0.00455  -0.00060  -0.00001  -0.00001  -0.00000
  18        6D 0        0.54628   0.19842   0.00225  -0.00063   0.00168
  19        6D+1        0.00232  -0.00004   0.00135  -0.00246   0.00624
  20        6D-1        0.00437  -0.00005  -0.00077   0.00141  -0.00358
  21        6D+2        0.52288  -0.22688  -0.18627   0.41398  -0.92090
  22        6D-2       -0.90010   0.40813  -0.10966   0.23210  -0.53450
  23 2   H  1S          0.41920   0.56953   0.62244   0.02146   0.30843
  24        2S         -0.93458  -0.52315  -1.70138   0.75934  -2.72745
  25        3S          0.73254   0.59831   1.19507  -0.04689   0.20863
  26        4S          0.45861   0.03292   0.34787  -0.27047   1.32473
  27        5PX        -0.02414   0.08200   0.09565  -0.26953   0.59847
  28        5PY        -0.25229   0.38549  -0.45851   0.62872  -1.12923
  29        5PZ         0.00078  -0.00151   0.00112  -0.00137   0.00370
  30 3   H  1S          0.41864   0.57161  -0.62569  -0.03429  -0.30293
  31        2S         -0.94377  -0.55240   1.71604  -0.75228   2.73014
  32        3S          0.72354   0.60127  -1.20542   0.03602  -0.20446
  33        4S          0.44731   0.05385  -0.34529   0.27371  -1.32359
  34        5PX        -0.21410   0.27852   0.44848  -0.68575   1.28299
  35        5PY        -0.14860   0.26394   0.14686  -0.08326   0.03865
  36        5PZ         0.00061  -0.00143  -0.00114   0.00139  -0.00371
  37 4   C  1S         -0.03687   0.02822  -0.00001   0.00008  -0.00012
  38        2S         -0.07234   0.05627   0.00047   0.00023  -0.00047
  39        2PX        -0.06603  -0.20548  -0.43453  -0.42328  -0.11427
  40        2PY        -0.12021  -0.33522   0.25256   0.24803   0.06272
  41        2PZ        -0.00077  -0.00084   0.00001  -0.00000  -0.00003
  42        3S          0.26085  -0.31595  -0.00850   0.00040   0.00881
  43        3PX        -0.56607   0.15201   1.06308  -1.02791  -0.93301
  44        3PY        -0.98733   0.25529  -0.62749   0.58403   0.54500
  45        3PZ        -0.00114   0.00005  -0.00004  -0.00002   0.00005
  46        4S          1.74035  -0.25541   0.01195  -0.01003  -0.00638
  47        4PX        -0.42528  -0.05597  -0.05964  -1.15720  -1.97060
  48        4PY        -0.75372  -0.09500   0.01795   0.66892   1.14881
  49        4PZ        -0.00292  -0.00020  -0.00003  -0.00002  -0.00001
  50        5S          1.04329  -0.45882  -0.02010   0.03372   0.01066
  51        5PX         0.27764  -0.01863  -0.44585   0.83359   1.39354
  52        5PY         0.43374  -0.00883   0.27891  -0.48336  -0.81361
  53        5PZ         0.00457  -0.00062   0.00004   0.00003   0.00001
  54        6D 0       -0.55929   0.22179  -0.00037   0.00194   0.00245
  55        6D+1        0.00267  -0.00008   0.00121  -0.00494  -0.00440
  56        6D-1        0.00436  -0.00002  -0.00072   0.00284   0.00256
  57        6D+2       -0.54259  -0.24423   0.16792  -0.80097  -0.63820
  58        6D-2        0.93401   0.41490   0.09630  -0.45997  -0.36367
  59 5   H  1S         -0.43889   0.57263  -0.63020   0.11530   0.30292
  60        2S          0.95725  -0.51449   1.65882  -1.89259  -2.10815
  61        3S         -0.74946   0.59861  -1.18487   0.15121   0.18639
[...]
  62        4S         -0.00004  -0.00005  -0.00000   0.00000  -0.00000
  63        5PX        -0.00001  -0.00000  -0.00000   0.00001   0.00000
  64        5PY         0.00001  -0.00003   0.00000   0.00003   0.00000
  65        5PZ         0.00000   0.00000   0.00010   0.00000   0.00007
  66 6   H  1S          0.00076  -0.00000   0.00000   0.00049   0.00000
  67        2S          0.00265  -0.00000   0.00000   0.00038   0.00000
  68        3S          0.00147  -0.00000  -0.00000   0.00000   0.00000
  69        4S         -0.00009   0.00000  -0.00000   0.00000   0.00000
  70        5PX        -0.00003  -0.00000   0.00000   0.00004   0.00000
  71        5PY         0.00000   0.00001   0.00000  -0.00000   0.00000
  72        5PZ         0.00000   0.00000   0.00010   0.00000  -0.00014
                          56        57        58        59        60
  56        6D-1        0.00076
  57        6D+2        0.00000   0.00192
  58        6D-2        0.00000   0.00000   0.00130
  59 5   H  1S          0.00000   0.00084   0.00211   0.07979
  60        2S          0.00000   0.00082   0.00200   0.07965   0.16030
  61        3S          0.00000   0.00006   0.00013   0.01085   0.03375
  62        4S          0.00000  -0.00000   0.00000   0.00097   0.00326
  63        5PX         0.00000  -0.00010  -0.00006   0.00000   0.00000
  64        5PY         0.00000  -0.00005   0.00008   0.00000   0.00000
  65        5PZ        -0.00022   0.00000   0.00000   0.00000   0.00000
  66 6   H  1S         -0.00000   0.00294   0.00000  -0.00001  -0.00071
  67        2S         -0.00000   0.00283   0.00000  -0.00072  -0.00559
  68        3S         -0.00000   0.00019   0.00000  -0.00158  -0.00627
  69        4S          0.00000  -0.00000  -0.00000   0.00022   0.00075
  70        5PX        -0.00000   0.00010  -0.00000   0.00000  -0.00004
  71        5PY         0.00000  -0.00000  -0.00023   0.00002   0.00028
  72        5PZ        -0.00000   0.00000   0.00000  -0.00000  -0.00000
                          61        62        63        64        65
  61        3S          0.01404
  62        4S          0.00079   0.00077
  63        5PX         0.00000   0.00000   0.00055
  64        5PY         0.00000   0.00000   0.00000   0.00097
  65        5PZ         0.00000   0.00000   0.00000   0.00000   0.00045
  66 6   H  1S         -0.00158   0.00021   0.00003  -0.00001   0.00000
  67        2S         -0.00629   0.00070   0.00041  -0.00016   0.00000
  68        3S         -0.00407   0.00030   0.00011  -0.00011   0.00000
  69        4S          0.00030   0.00000   0.00002   0.00000  -0.00000
  70        5PX        -0.00012   0.00001   0.00003   0.00000   0.00000
  71        5PY         0.00011   0.00001   0.00001   0.00000  -0.00000
  72        5PZ        -0.00000   0.00000   0.00000  -0.00000   0.00000
                          66        67        68        69        70
  66 6   H  1S          0.07965
  67        2S          0.07963   0.16050
  68        3S          0.01097   0.03416   0.01433
  69        4S          0.00102   0.00342   0.00087   0.00082
  70        5PX         0.00000   0.00000   0.00000   0.00000   0.00119
  71        5PY         0.00000   0.00000   0.00000   0.00000   0.00000
  72        5PZ         0.00000   0.00000   0.00000   0.00000   0.00000
                          71        72
  71        5PY         0.00032
  72        5PZ         0.00000   0.00045
     Gross orbital populations:
                           1
   1 1   C  1S          1.10446
   2        2S          0.88473
   3        2PX         0.23292
   4        2PY         0.23909
   5        2PZ         0.16256
   6        3S          0.75737
   7        3PX         0.51846
   8        3PY         0.52750
   9        3PZ         0.40757
  10        4S          0.49066
  11        4PX         0.27394
  12        4PY         0.22591
  13        4PZ         0.38254
  14        5S         -0.01860
  15        5PX         0.00278
  16        5PY        -0.00116
  17        5PZ         0.02749
  18        6D 0        0.00315
  19        6D+1        0.00195
  20        6D-1        0.00591
  21        6D+2        0.01747
  22        6D-2        0.01224
  23 2   H  1S          0.27635
  24        2S          0.48849
  25        3S          0.06498
  26        4S          0.01479
  27        5PX         0.00728
  28        5PY         0.01190
  29        5PZ         0.00615
  30 3   H  1S          0.27696
  31        2S          0.48828
  32        3S          0.06498
  33        4S          0.01550
  34        5PX         0.01430
  35        5PY         0.00492
  36        5PZ         0.00619
  37 4   C  1S          1.10447
  38        2S          0.88474
  39        2PX         0.23180
  40        2PY         0.23898
  41        2PZ         0.16245
  42        3S          0.75759
  43        3PX         0.51772
  44        3PY         0.52715
  45        3PZ         0.40723
  46        4S          0.49196
  47        4PX         0.27590
  48        4PY         0.22656
  49        4PZ         0.38240
  50        5S         -0.01968
  51        5PX         0.00198
  52        5PY        -0.00153
  53        5PZ         0.02757
  54        6D 0        0.00314
  55        6D+1        0.00195
  56        6D-1        0.00590
  57        6D+2        0.01761
  58        6D-2        0.01214
  59 5   H  1S          0.27581
  60        2S          0.48873
  61        3S          0.06561
  62        4S          0.01478
  63        5PX         0.00721
  64        5PY         0.01190
  65        5PZ         0.00609
  66 6   H  1S          0.27535
  67        2S          0.48897
  68        3S          0.06669
  69        4S          0.01569
  70        5PX         0.01425
  71        5PY         0.00482
  72        5PZ         0.00606
          Condensed to atoms (all electrons):
               1          2          3          4          5          6
     1  C    4.890296   0.419775   0.420085   0.609357  -0.039982  -0.040577
     2  H    0.419775   0.514206  -0.022734  -0.040412   0.002040  -0.002930
     3  H    0.420085  -0.022734   0.515155  -0.040775  -0.002871   0.002264
     4  C    0.609357  -0.040412  -0.040775   4.891217   0.419239   0.419398
     5  H   -0.039982   0.002040  -0.002871   0.419239   0.515440  -0.023731
     6  H   -0.040577  -0.002930   0.002264   0.419398  -0.023731   0.517397
 Mulliken charges:
               1
     1  C   -0.258954
     2  H    0.130056
     3  H    0.128877
     4  C   -0.258024
     5  H    0.129866
     6  H    0.128179
 Sum of Mulliken charges =  -0.00000
 Mulliken charges with hydrogens summed into heavy atoms:
               1
     1  C   -0.000021
     4  C    0.000021
 Electronic spatial extent (au):  <R**2>=             82.9045
 Charge=             -0.0000 electrons
 Dipole moment (field-independent basis, Debye):
    X=             -0.0000    Y=              0.0017    Z=              0.0088  Tot=              0.0090
 Quadrupole moment (field-independent basis, Debye-Ang):
   XX=            -12.1623   YY=            -12.2540   ZZ=            -15.8417
   XY=             -0.1056   XZ=              0.0000   YZ=              0.0000
 Traceless Quadrupole moment (field-independent basis, Debye-Ang):
   XX=              1.2571   YY=              1.1653   ZZ=             -2.4224
   XY=             -0.1056   XZ=              0.0000   YZ=              0.0000
 Octapole moment (field-independent basis, Debye-Ang**2):
  XXX=             -0.0831  YYY=             -0.0576  ZZZ=             -0.0703  XYY=             -0.0083
  XXY=             -0.0235  XXZ=             -0.0061  XZZ=             -0.0352  YZZ=             -0.0337
  YYZ=             -0.0031  XYZ=              0.0026
 Hexadecapole moment (field-independent basis, Debye-Ang**3):
 XXXX=            -33.9606 YYYY=            -55.2592 ZZZZ=            -20.2594 XXXY=             -7.3807
 XXXZ=             -0.0001 YYYX=            -11.0292 YYYZ=             -0.0000 ZZZX=             -0.0003
 ZZZY=             -0.0003 XXYY=            -16.2949 XXZZ=            -10.3739 YYZZ=            -14.0446
 XXYZ=             -0.0000 YYXZ=              0.0000 ZZXY=             -3.1537
 N-N= 3.330767118057D+01 E-N=-2.483785741524D+02  KE= 7.819562378394D+01
 Orbital energies and kinetic energies (alpha):
                                 1                 2
   1         O               -10.285777         15.971882
   2         O               -10.284771         15.975193
   3         O                -0.861463          1.499224
   4         O                -0.679240          1.292423
   5         O                -0.567064          0.954829
   6         O                -0.501393          1.307036
   7         O                -0.450242          1.080257
   8         O                -0.355108          1.016969
   9         V                 0.050976          0.139424
  10         V                 0.059198          0.910223
  11         V                 0.065146          0.128864
  12         V                 0.066280          0.113929
  13         V                 0.085749          0.102308
  14         V                 0.125377          0.240877
  15         V                 0.138954          0.195578
  16         V                 0.172305          0.259419
  17         V                 0.177159          0.224058
  18         V                 0.179217          0.567342
  19         V                 0.198502          0.340865
  20         V                 0.214371          0.412797
  21         V                 0.222458          0.716809
  22         V                 0.226254          0.373430
  23         V                 0.247721          0.713351
  24         V                 0.276270          0.735291
  25         V                 0.420853          0.913862
  26         V                 0.427280          1.200001
  27         V                 0.511283          0.900150
  28         V                 0.528990          0.968275
  29         V                 0.604828          1.334375
  30         V                 0.615209          1.327078
  31         V                 0.621026          1.413235
  32         V                 0.681126          1.661562
  33         V                 0.731031          1.648109
  34         V                 0.812308          2.172190
  35         V                 0.835752          1.832246
  36         V                 0.843511          2.373515
  37         V                 0.869821          1.362630
  38         V                 0.935770          2.754617
  39         V                 1.075433          1.795206
  40         V                 1.177715          1.988400
  41         V                 1.189928          1.864817
  42         V                 1.481669          2.214617
  43         V                 1.485146          2.090619
  44         V                 1.524160          2.317287
  45         V                 1.689249          2.557269
  46         V                 1.693807          2.560396
  47         V                 1.699140          2.378795
  48         V                 1.705514          2.383600
  49         V                 1.844584          2.579277
  50         V                 1.908233          2.559275
  51         V                 2.048337          3.287864
  52         V                 2.161669          3.048371
  53         V                 2.194609          3.592032
  54         V                 2.218859          3.122518
  55         V                 2.264288          3.010991
  56         V                 2.301234          3.751017
  57         V                 2.494607          4.379988
  58         V                 2.525344          4.472643
  59         V                 2.664417          4.310064
  60         V                 2.669154          3.785456
  61         V                 2.778876          4.114839
  62         V                 2.790574          4.116198
  63         V                 2.829061          6.320534
  64         V                 2.946352          5.003347
  65         V                 2.992069          6.354309
  66         V                 3.242573          5.244400
  67         V                 3.494358          7.012351
  68         V                 3.791706          6.218158
  69         V                 3.949021          6.460210
  70         V                 4.270762          6.902115
  71         V                23.926563         60.325417
  72         V                24.327981         60.456673
 Total kinetic energy from orbitals= 7.819562378394D+01
 Calling FoFJK, ICntrl=  10005127 FMM=F ISym2X=0 I1Cent= 0 IOpClX= 0 NMat=1 NMatS=1 NMatT=0.
 -------------------------------------------------------------------
 Center     Atomic                   Forces (Hartrees/Bohr)
 Number     Number              X              Y              Z
 -------------------------------------------------------------------
      1        6          -0.018551667   -0.032820778    0.000286403
      2        1           0.005063225   -0.011543102   -0.000144648
      3        1          -0.013897618   -0.001835432   -0.000140445
      4        6           0.022487122    0.035459573    0.000298129
      5        1          -0.005051694    0.009790180   -0.000149057
      6        1           0.009950632    0.000949559   -0.000150383
 -------------------------------------------------------------------
 Cartesian Forces:  Max     0.035459573 RMS     0.014455588

 GradGradGradGradGradGradGradGradGradGradGradGradGradGradGradGradGradGrad
 Berny optimization.
 Search for a local minimum.
 Step number   1 out of a maximum of    2
 All quantities printed in internal units (Hartrees-Bohrs-Radians)
 Second derivative matrix not updated -- first step.
 The second derivative matrix:
                          X1        Y1        Z1        X2        Y2
           X1           0.78173
           Y1           0.06933   0.86212
           Z1          -0.00059  -0.00100   0.16612
           X2          -0.17582   0.10732  -0.00024   0.15253
           Y2           0.11447  -0.31119   0.00081  -0.12796   0.29923
           Z2          -0.00036   0.00099  -0.05514   0.00033  -0.00083
           X3          -0.37560   0.00068   0.00082   0.00009   0.00005
           Y3          -0.00635  -0.11376   0.00020   0.03397   0.01968
           Z3           0.00105   0.00018  -0.05517  -0.00015  -0.00006
           X4          -0.25363  -0.16393   0.00010   0.02320   0.01344
           Y4          -0.16399  -0.44491   0.00017  -0.01333  -0.00772
           Z4          -0.00010  -0.00017  -0.08709   0.00006   0.00008
           X5           0.02325  -0.01336  -0.00006  -0.00000   0.00000
           Y5           0.01325  -0.00762  -0.00008   0.00000  -0.00000
           Z5           0.00004  -0.00002   0.01567  -0.00002   0.00001
           X6           0.00007  -0.00004  -0.00004  -0.00000   0.00000
           Y6          -0.02671   0.01535  -0.00009   0.00000  -0.00000
           Z6          -0.00004   0.00002   0.01561   0.00002  -0.00001
                          Z2        X3        Y3        Z3        X4
           Z2           0.02854
           X3           0.00003   0.37558
           Y3          -0.00016  -0.00077   0.07865
           Z3           0.01104  -0.00089  -0.00013   0.02853
           X4          -0.00004  -0.00007  -0.02685   0.00004   0.77219
           Y4           0.00002   0.00004   0.01543  -0.00002   0.07249
           Z4           0.01551   0.00004   0.00009   0.01564   0.00057
           X5           0.00002  -0.00000   0.00000  -0.00002  -0.17306
           Y5          -0.00001   0.00000  -0.00000   0.00001   0.11274
           Z5           0.00878  -0.00002   0.00001  -0.00877   0.00036
           X6           0.00002  -0.00000   0.00000  -0.00002  -0.36863
           Y6          -0.00001   0.00000  -0.00000   0.00001  -0.00789
           Z6          -0.00873   0.00002  -0.00001   0.00872  -0.00103
                          Y4        Z4        X5        Y5        Z5
           Y4           0.86041
           Z4           0.00099   0.16607
           X5           0.10544   0.00023   0.14990
           Y5          -0.31070  -0.00080  -0.12595   0.29901
           Z5          -0.00098  -0.05522  -0.00033   0.00082   0.02858
           X6          -0.00065  -0.00080  -0.00009  -0.00005  -0.00003
           Y6          -0.11251  -0.00019   0.03387   0.01931   0.00016
           Z6          -0.00018  -0.05491   0.00015   0.00005   0.01096
                          X6        Y6        Z6
           X6           0.36865
           Y6           0.00074   0.07785
           Z6           0.00087   0.00013   0.02835
 ITU=  0
     Eigenvalues ---    0.03499   0.04553   0.09755   0.09861   0.13564
     Eigenvalues ---    0.19102   0.24986   0.31560   0.56575   0.79113
     Eigenvalues ---    1.05526   1.51616
 Angle between quadratic step and forces=  48.54 degrees.
 Linear search not attempted -- first point.
 B after Tr=     0.000809    0.000818    0.000969
         Rot=    1.000000    0.000000   -0.000000    0.000095 Ang=   0.01 deg.
 Variable       Old X    -DE/DX   Delta X   Delta X   Delta X     New X
                                 (Linear)    (Quad)   (Total)
    X1       -0.63598  -0.01855   0.00000  -0.02481  -0.02422  -0.66020
    Y1       -1.10816  -0.03282   0.00000  -0.04053  -0.03959  -1.14775
    Z1        0.00212   0.00029   0.00000   0.00201   0.00298   0.00509
    X2        0.37693   0.00506   0.00000  -0.01760  -0.01735   0.35958
    Y2       -2.85631  -0.01154   0.00000  -0.07514  -0.07439  -2.93070
    Z2        0.00730  -0.00014   0.00000  -0.00246  -0.00149   0.00580
    X3       -2.65309  -0.01390   0.00000  -0.06186  -0.06127  -2.71436
    Y3       -1.10293  -0.00184   0.00000  -0.05717  -0.05584  -1.15877
    Z3        0.00730  -0.00014   0.00000  -0.00245  -0.00148   0.00582
    X4        0.64021   0.02249   0.00000   0.02816   0.02919   0.66940
    Y4        1.11239   0.03546   0.00000   0.04392   0.04461   1.15700
    Z4        0.00212   0.00030   0.00000   0.00200   0.00297   0.00509
    X5       -0.36234  -0.00505   0.00000   0.01610   0.01747  -0.34487
    Y5        2.87091   0.00979   0.00000   0.07122   0.07210   2.94302
    Z5        0.00730  -0.00015   0.00000  -0.00246  -0.00149   0.00581
    X6        2.66769   0.00995   0.00000   0.05515   0.05618   2.72387
    Y6        1.11753   0.00095   0.00000   0.05281   0.05311   1.17064
    Z6        0.00731  -0.00015   0.00000  -0.00245  -0.00148   0.00583
         Item               Value     Threshold  Converged?
 Maximum Force            0.035460     0.000450     NO 
 RMS     Force            0.014456     0.000300     NO 
 Maximum Displacement     0.074391     0.001800     NO 
 RMS     Displacement     0.040284     0.001200     NO 
 Predicted change in Energy=-3.470730D-03
 GradGradGradGradGradGradGradGradGradGradGradGradGradGradGradGradGradGrad

 Unable to Open any file for archive entry.
 1\1\GINC-BHD0002\Force\RwB97XD TD-FC\6-311++G(d,p)\C2H4\BWEIGHT\14-Jan
 -2023\0\\# WB97XD/6-311++G** SCF=XQC TD=(singlets,nstates=2,root=1) FO
 RCE nosym pop=full guess=read\\MD Step 1\\0,1\C,-0.33654406,-0.5864131
 ,0.00112017\H,0.19946486,-1.51149325,0.00386092\H,-1.40395661,-0.58364
 762,0.00386485\C,0.33878283,0.58865206,0.00111934\H,-0.19174038,1.5192
 2151,0.00386372\H,1.41168145,0.59137387,0.00386764\\Version=ES64L-G16R
 evC.01\HF=-78.5789143\RMSD=1.793e-10\RMSF=1.446e-02\Dipole=-0.0097198,
 -0.0048238,-0.0067477\PG=C01 [X(C2H4)]\\@
 The archive entry for this job was punched.


 MODELS ARE TO BE USED, NOT BELIEVED.

    -- PARAPHRASED BY H. THIEL IN "PRINCIPLES OF ECONOMETRICS"
 Job cpu time:       0 days  0 hours  4 minutes  5.3 seconds.
 Elapsed time:       0 days  0 hours  0 minutes 10.8 seconds.
 File lengths (MBytes):  RWF=   1312 Int=      0 D2E=      0 Chk=     32 Scr=     32
 Normal termination of Gaussian 16 at Sat Jan 14 14:16:02 2023.
