 Entering Gaussian System, Link 0=g16
 Initial command:
 /software/gaussian/g16-c01/avx2/g16/l1.exe "/gpfs/fs2/scratch/bweight/software/many_molecule_many_mode_NAMD/src/NAMD/TEST_NVT/TRAJ/traj-63/G16/GS_NEW/Gau-32235.inp" -scrdir="/gpfs/fs2/scratch/bweight/software/many_molecule_many_mode_NAMD/src/NAMD/TEST_NVT/TRAJ/traj-63/G16/GS_NEW/"
 Entering Link 1 = /software/gaussian/g16-c01/avx2/g16/l1.exe PID=     32236.
  
 Copyright (c) 1988-2019, Gaussian, Inc.  All Rights Reserved.
  
 This is part of the Gaussian(R) 16 program.  It is based on
 the Gaussian(R) 09 system (copyright 2009, Gaussian, Inc.),
 the Gaussian(R) 03 system (copyright 2003, Gaussian, Inc.),
 the Gaussian(R) 98 system (copyright 1998, Gaussian, Inc.),
 the Gaussian(R) 94 system (copyright 1995, Gaussian, Inc.),
 the Gaussian 92(TM) system (copyright 1992, Gaussian, Inc.),
 the Gaussian 90(TM) system (copyright 1990, Gaussian, Inc.),
 the Gaussian 88(TM) system (copyright 1988, Gaussian, Inc.),
 the Gaussian 86(TM) system (copyright 1986, Carnegie Mellon
 University), and the Gaussian 82(TM) system (copyright 1983,
 Carnegie Mellon University). Gaussian is a federally registered
 trademark of Gaussian, Inc.
  
 This software contains proprietary and confidential information,
 including trade secrets, belonging to Gaussian, Inc.
  
 This software is provided under written license and may be
 used, copied, transmitted, or stored only in accord with that
 written license.
  
 The following legend is applicable only to US Government
 contracts under FAR:
  
                    RESTRICTED RIGHTS LEGEND
  
 Use, reproduction and disclosure by the US Government is
 subject to restrictions as set forth in subparagraphs (a)
 and (c) of the Commercial Computer Software - Restricted
 Rights clause in FAR 52.227-19.
  
 Gaussian, Inc.
 340 Quinnipiac St., Bldg. 40, Wallingford CT 06492
  
  
 ---------------------------------------------------------------
 Warning -- This program may not be used in any manner that
 competes with the business of Gaussian, Inc. or will provide
 assistance to any competitor of Gaussian, Inc.  The licensee
 of this program is prohibited from giving any competitor of
 Gaussian, Inc. access to this program.  By using this program,
 the user acknowledges that Gaussian, Inc. is engaged in the
 business of creating and licensing software in the field of
 computational chemistry and represents and warrants to the
 licensee that it is not a competitor of Gaussian, Inc. and that
 it will not use this program in any manner prohibited above.
 ---------------------------------------------------------------
  

 Cite this work as:
 Gaussian 16, Revision C.01,
 M. J. Frisch, G. W. Trucks, H. B. Schlegel, G. E. Scuseria, 
 M. A. Robb, J. R. Cheeseman, G. Scalmani, V. Barone, 
 G. A. Petersson, H. Nakatsuji, X. Li, M. Caricato, A. V. Marenich, 
 J. Bloino, B. G. Janesko, R. Gomperts, B. Mennucci, H. P. Hratchian, 
 J. V. Ortiz, A. F. Izmaylov, J. L. Sonnenberg, D. Williams-Young, 
 F. Ding, F. Lipparini, F. Egidi, J. Goings, B. Peng, A. Petrone, 
 T. Henderson, D. Ranasinghe, V. G. Zakrzewski, J. Gao, N. Rega, 
 G. Zheng, W. Liang, M. Hada, M. Ehara, K. Toyota, R. Fukuda, 
 J. Hasegawa, M. Ishida, T. Nakajima, Y. Honda, O. Kitao, H. Nakai, 
 T. Vreven, K. Throssell, J. A. Montgomery, Jr., J. E. Peralta, 
 F. Ogliaro, M. J. Bearpark, J. J. Heyd, E. N. Brothers, K. N. Kudin, 
 V. N. Staroverov, T. A. Keith, R. Kobayashi, J. Normand, 
 K. Raghavachari, A. P. Rendell, J. C. Burant, S. S. Iyengar, 
 J. Tomasi, M. Cossi, J. M. Millam, M. Klene, C. Adamo, R. Cammi, 
 J. W. Ochterski, R. L. Martin, K. Morokuma, O. Farkas, 
 J. B. Foresman, and D. J. Fox, Gaussian, Inc., Wallingford CT, 2019.
 
 ******************************************
 Gaussian 16:  ES64L-G16RevC.01  3-Jul-2019
                11-Jan-2023 
 ******************************************
 %oldchk=../GS_OLD/geometry.chk
 %chk=geometry.chk
 %nprocshared=4
 Will use up to    4 processors via shared memory.
 %mem=5GB
 Copying data from "../GS_OLD/geometry.chk" to current chk file "geometry.chk"
 IOpt=  2 FromEx=T IUOpen= 4 IOptOp= 5 NList=   0 IFRang= 0 IUIn= 4 IUOut= 2.
 -------------------------------------------------------
 # WB97XD/6-311G SCF=XQC FORCE nosym pop=full guess=read
 -------------------------------------------------------
 1/10=7,30=1,38=1/1,3;
 2/12=2,15=1,17=6,18=5,40=1/2;
 3/5=4,6=6,11=2,25=1,30=1,71=1,74=-58,116=-2/1,2,3;
 4/5=1/1;
 5/5=2,8=3,13=1,38=6/2,8;
 6/7=3,28=1/1;
 7/29=1,30=1/1,2,3,16;
 1/10=7,30=1/3;
 99//99;
 -----------
 MD Step 999
 -----------
 Symbolic Z-matrix:
 Charge =  0 Multiplicity = 1
 C                    -0.33568  -0.58157   0.00671 
 H                     0.21487  -1.52846  -0.02279 
 H                    -1.42183  -0.58413  -0.02315 
 C                     0.33331   0.57663   0.00551 
 H                    -0.16114   1.56552  -0.02663 
 H                     1.44303   0.65272  -0.02623 
 

 GradGradGradGradGradGradGradGradGradGradGradGradGradGradGradGradGradGrad
 Berny optimization.
 Initialization pass.
 Trust Radius=3.00D-01 FncErr=1.00D-07 GrdErr=1.00D-07 EigMax=2.50D+02 EigMin=1.00D-04
 Number of steps in this run=      2 maximum allowed number of steps=      2.
 GradGradGradGradGradGradGradGradGradGradGradGradGradGradGradGradGradGrad

                          Input orientation:                          
 ---------------------------------------------------------------------
 Center     Atomic      Atomic             Coordinates (Angstroms)
 Number     Number       Type             X           Y           Z
 ---------------------------------------------------------------------
      1          6           0       -0.335676   -0.581568    0.006710
      2          1           0        0.214874   -1.528462   -0.022791
      3          1           0       -1.421829   -0.584134   -0.023155
      4          6           0        0.333311    0.576626    0.005506
      5          1           0       -0.161138    1.565521   -0.026628
      6          1           0        1.443028    0.652719   -0.026233
 ---------------------------------------------------------------------
                    Distance matrix (angstroms):
                    1          2          3          4          5
     1  C    0.000000
     2  H    1.095712   0.000000
     3  H    1.086566   1.889590   0.000000
     4  C    1.337519   2.108607   2.104448   0.000000
     5  H    2.154429   3.116750   2.492062   1.106085   0.000000
     6  H    2.165257   2.503183   3.120452   1.112775   1.845685
                    6
     6  H    0.000000
 Symmetry turned off by external request.
 Stoichiometry    C2H4
 Framework group  C1[X(C2H4)]
 Deg. of freedom    12
 Full point group                 C1      NOp   1
 Rotational constants (GHZ):         143.6101288          29.6797589          24.6042660
 Standard basis: 6-311G (5D, 7F)
    38 basis functions,    72 primitive gaussians,    38 cartesian basis functions
     8 alpha electrons        8 beta electrons
       nuclear repulsion energy        33.0711994407 Hartrees.
 NAtoms=    6 NActive=    6 NUniq=    6 SFac= 1.00D+00 NAtFMM=   60 NAOKFM=F Big=F
 Integral buffers will be    131072 words long.
 Raffenetti 2 integral format.
 Two-electron integral symmetry is turned off.
 Nuclear repulsion after empirical dispersion term =       33.0703592260 Hartrees.
 One-electron integrals computed using PRISM.
 NBasis=    38 RedAO= T EigKep=  6.42D-03  NBF=    38
 NBsUse=    38 1.00D-06 EigRej= -1.00D+00 NBFU=    38
 Initial guess from the checkpoint file:  "geometry.chk"
 B after Tr=    -0.000276   -0.000387   -0.000398
         Rot=    1.000000   -0.000001    0.000002    0.000006 Ang=  -0.00 deg.
 Keep R1 ints in memory in canonical form, NReq=4036876.
 Requested convergence on RMS density matrix=1.00D-08 within  32 cycles.
 Requested convergence on MAX density matrix=1.00D-06.
 Requested convergence on             energy=1.00D-06.
 No special actions if energy rises.
 SCF Done:  E(RwB97XD) =  -78.5556647056     A.U. after    8 cycles
            NFock=  8  Conv=0.46D-08     -V/T= 2.0052
 QCSCF skips out because SCF is already converged.

 **********************************************************************

            Population analysis using the SCF Density.

 **********************************************************************

 Alpha  occ. eigenvalues --  -10.29043 -10.28795  -0.86389  -0.67229  -0.55912
 Alpha  occ. eigenvalues --   -0.50978  -0.43613  -0.35699
 Alpha virt. eigenvalues --    0.07989   0.14102   0.16460   0.17000   0.24082
 Alpha virt. eigenvalues --    0.37392   0.39269   0.39969   0.46368   0.48841
 Alpha virt. eigenvalues --    0.49371   0.59108   0.66545   0.69091   0.77256
 Alpha virt. eigenvalues --    0.77581   0.84165   0.95256   2.23155   2.28969
 Alpha virt. eigenvalues --    2.33306   2.40669   2.67126   2.81757   2.87900
 Alpha virt. eigenvalues --    2.95129   3.14139   3.31834  23.35203  23.70629
     Molecular Orbital Coefficients:
                           1         2         3         4         5
                           O         O         O         O         O
     Eigenvalues --   -10.29043 -10.28795  -0.86389  -0.67229  -0.55912
   1 1   C  1S          0.10177   0.55413  -0.08847   0.06668  -0.00038
   2        2S          0.08395   0.45603  -0.13984   0.10680  -0.00063
   3        2PX         0.00016  -0.00001   0.02605   0.03612   0.13749
   4        2PY         0.00028  -0.00001   0.04635   0.06004  -0.07563
   5        2PZ         0.00000  -0.00001  -0.00122   0.00181   0.00013
   6        3S          0.00178   0.01453   0.37510  -0.29139   0.00177
   7        3PX        -0.00061   0.00043   0.03439   0.05805   0.21558
   8        3PY        -0.00104   0.00077   0.06098   0.09735  -0.11908
   9        3PZ        -0.00001  -0.00003  -0.00203   0.00323   0.00018
  10        4S          0.00327  -0.01469   0.19188  -0.22578   0.00166
  11        4PX         0.00148  -0.00154   0.00474   0.02322   0.11158
  12        4PY         0.00257  -0.00267   0.00858   0.04024  -0.06239
  13        4PZ         0.00000   0.00008  -0.00072   0.00163   0.00009
  14 2   H  1S         -0.00005  -0.00006   0.05268  -0.08777   0.10343
  15        2S         -0.00030   0.00010   0.05391  -0.10560   0.13087
  16        3S          0.00084   0.00168  -0.00176  -0.01519   0.04231
  17 3   H  1S         -0.00005  -0.00007   0.05386  -0.09034  -0.10541
  18        2S         -0.00030   0.00009   0.05463  -0.10815  -0.13268
  19        3S          0.00084   0.00171  -0.00178  -0.01592  -0.04294
  20 4   C  1S          0.55412  -0.10196  -0.08681  -0.06842  -0.00023
  21        2S          0.45609  -0.08371  -0.13708  -0.10972  -0.00037
  22        2PX        -0.00002  -0.00016  -0.02769   0.03772   0.11822
  23        2PY        -0.00003  -0.00029  -0.04683   0.06691  -0.07198
  24        2PZ        -0.00000   0.00000  -0.00104  -0.00204   0.00013
  25        3S          0.01405  -0.00349   0.36724   0.29982   0.00103
  26        3PX        -0.00021   0.00073  -0.03474   0.06118   0.18502
  27        3PY        -0.00034   0.00126  -0.05849   0.10809  -0.11191
  28        3PZ        -0.00003  -0.00000  -0.00181  -0.00366   0.00020
  29        4S         -0.01225   0.00840   0.18872   0.23798   0.00021
  30        4PX         0.00089  -0.00192  -0.00546   0.02677   0.10189
  31        4PY         0.00148  -0.00332  -0.00904   0.04601  -0.06087
  32        4PZ         0.00007  -0.00002  -0.00073  -0.00188   0.00010
  33 5   H  1S         -0.00006  -0.00004   0.04964   0.09340  -0.08854
  34        2S         -0.00002  -0.00032   0.05078   0.11154  -0.11184
  35        3S          0.00180   0.00014  -0.00108   0.01677  -0.03600
  36 6   H  1S         -0.00005  -0.00004   0.04859   0.09222   0.08553
  37        2S         -0.00003  -0.00032   0.05021   0.11045   0.10829
  38        3S          0.00176   0.00015  -0.00117   0.01633   0.03507
                           6         7         8         9        10
                           O         O         O         V         V
     Eigenvalues --    -0.50978  -0.43613  -0.35699   0.07989   0.14102
   1 1   C  1S         -0.00349   0.00006  -0.00091   0.00258  -0.03299
   2        2S         -0.00520   0.00010  -0.00149   0.00429  -0.05291
   3        2PX         0.09555  -0.11017  -0.00322   0.00132  -0.03299
   4        2PY         0.16765   0.06564  -0.00555   0.00227  -0.06344
   5        2PZ         0.00489   0.00004   0.17942  -0.18898  -0.00221
   6        3S          0.01998  -0.00006   0.00432  -0.01301   0.11483
   7        3PX         0.13892  -0.17577  -0.00455   0.00199  -0.03944
   8        3PY         0.24474   0.10521  -0.00783   0.00339  -0.07824
   9        3PZ         0.00774   0.00009   0.28856  -0.27797  -0.00356
  10        4S         -0.05368  -0.00230   0.00667  -0.01398   1.21594
  11        4PX         0.07012  -0.10988  -0.00364   0.01172  -0.20027
  12        4PY         0.12415   0.06581  -0.00632   0.02025  -0.37695
  13        4PZ         0.00437   0.00009   0.26694  -0.69542  -0.01270
  14 2   H  1S         -0.08030  -0.11438   0.00017   0.00399  -0.01607
  15        2S         -0.11102  -0.17662   0.00192   0.00627  -0.04526
  16        3S         -0.04140  -0.08179   0.00118   0.01678  -0.81591
  17 3   H  1S         -0.07980   0.11240   0.00011   0.00400  -0.01356
  18        2S         -0.10981   0.17289   0.00184   0.00629  -0.03965
  19        3S         -0.04069   0.07974   0.00114   0.01653  -0.77723
  20 4   C  1S         -0.00856  -0.00037  -0.00082  -0.00259  -0.03658
  21        2S         -0.01340  -0.00061  -0.00134  -0.00428  -0.05876
  22        2PX        -0.09720   0.12528   0.00323   0.00172   0.03934
  23        2PY        -0.16261  -0.07387   0.00582   0.00302   0.06269
  24        2PZ         0.00516   0.00015   0.17917   0.18943  -0.00306
  25        3S          0.04319   0.00173   0.00399   0.01279   0.12980
  26        3PX        -0.14372   0.20066   0.00452   0.00263   0.04777
  27        3PY        -0.23918  -0.11756   0.00817   0.00463   0.07459
  28        3PZ         0.00817   0.00022   0.28675   0.27774  -0.00462
  29        4S         -0.02869   0.00221   0.00628   0.01543   1.25170
  30        4PX        -0.07495   0.12858   0.00354   0.01295   0.25828
  31        4PY        -0.12370  -0.07515   0.00649   0.02240   0.42198
  32        4PZ         0.00475   0.00014   0.26721   0.69659  -0.01834
  33 5   H  1S         -0.07483  -0.12540   0.00020  -0.00394  -0.01289
  34        2S         -0.10216  -0.19565   0.00208  -0.00660  -0.03953
  35        3S         -0.03812  -0.09204   0.00113  -0.01711  -0.84083
  36 6   H  1S         -0.07958   0.12444   0.00014  -0.00395  -0.01516
  37        2S         -0.10890   0.19508   0.00199  -0.00674  -0.04524
  38        3S         -0.04070   0.09189   0.00106  -0.01754  -0.88092
                          11        12        13        14        15
                           V         V         V         V         V
     Eigenvalues --     0.16460   0.17000   0.24082   0.37392   0.39269
   1 1   C  1S          0.00109  -0.04570   0.00013   0.00972   0.00016
   2        2S          0.00177  -0.07449   0.00019   0.01330   0.00006
   3        2PX         0.09648  -0.01918   0.10012  -0.03633  -0.02199
   4        2PY        -0.05429  -0.03790  -0.05721  -0.06518   0.01215
   5        2PZ         0.00012  -0.00635   0.00000  -0.00435  -0.00017
   6        3S         -0.00398   0.16845   0.00026   0.03317   0.00474
   7        3PX         0.13826  -0.01053   0.10596  -0.04522  -0.09998
   8        3PY        -0.07882  -0.02503  -0.06122  -0.08617   0.05910
   9        3PZ         0.00016  -0.00877  -0.00002  -0.00876  -0.00030
  10        4S         -0.04319   1.44373  -0.02574  -2.60144  -0.09566
  11        4PX         0.57898  -0.11034   1.16539  -1.56427  -0.53210
  12        4PY        -0.31828  -0.21430  -0.67285  -2.72606   0.15886
  13        4PZ         0.00087  -0.04159   0.00038  -0.04116  -0.00228
  14 2   H  1S         -0.02930  -0.02553   0.01398  -0.05772   0.07443
  15        2S         -0.08148  -0.01936  -0.02246  -0.66436   0.74641
  16        3S         -1.03327  -1.02373  -1.54526  -0.31530  -0.30776
  17 3   H  1S          0.02905  -0.02494  -0.01546  -0.05135  -0.07737
  18        2S          0.08086  -0.01938   0.01757  -0.61010  -0.78488
  19        3S          1.09055  -1.00285   1.57482  -0.37630   0.26585
  20 4   C  1S          0.00039   0.04217  -0.00016  -0.02013  -0.00021
  21        2S          0.00061   0.06865  -0.00027  -0.03310  -0.00038
  22        2PX         0.10242  -0.02226  -0.10035  -0.04037  -0.03154
  23        2PY        -0.06015  -0.03789   0.05751  -0.07294   0.01332
  24        2PZ         0.00004   0.00631  -0.00000   0.00328   0.00022
  25        3S         -0.00097  -0.15244   0.00036   0.04438   0.00176
  26        3PX         0.14706  -0.01682  -0.11410  -0.09194  -0.11226
  27        3PY        -0.08601  -0.02804   0.06435  -0.16877   0.05196
  28        3PZ         0.00005   0.00873   0.00002   0.00417   0.00041
  29        4S         -0.02690  -1.32995   0.01909   3.31549   0.12184
  30        4PX         0.54281  -0.11515  -1.12439  -1.16629  -0.50764
  31        4PY        -0.32177  -0.19807   0.64482  -2.05329   0.18125
  32        4PZ         0.00031   0.04090  -0.00040   0.03224   0.00156
  33 5   H  1S          0.03129   0.02504   0.00566   0.00940  -0.08237
  34        2S          0.06812   0.02192  -0.03428   0.05422  -0.82190
  35        3S          1.05845   0.93878  -1.52286   0.44964   0.47762
  36 6   H  1S         -0.03201   0.02510  -0.00473   0.00340   0.08663
  37        2S         -0.06942   0.02097   0.03521   0.00514   0.86482
  38        3S         -1.02327   0.93336   1.50366   0.47100  -0.46695
                          16        17        18        19        20
                           V         V         V         V         V
     Eigenvalues --     0.39969   0.46368   0.48841   0.49371   0.59108
   1 1   C  1S         -0.01855   0.01270  -0.04632  -0.00003  -0.00054
   2        2S         -0.03256   0.02930  -0.07740   0.00022  -0.00097
   3        2PX         0.02816  -0.06183   0.01152   0.00099   0.00195
   4        2PY         0.04950  -0.10621   0.01489   0.00149   0.00302
   5        2PZ         0.00032  -0.00046   0.00388  -0.15175  -0.19258
   6        3S          0.07531  -0.33700   0.08960  -0.00938  -0.00047
   7        3PX         0.10769  -0.24178  -0.03555   0.00033   0.00652
   8        3PY         0.19196  -0.41409  -0.07226  -0.00008   0.01022
   9        3PZ        -0.00375  -0.00429   0.01807  -0.62807  -0.68513
  10        4S          2.72176   0.10807   3.11002   0.06248   0.06642
  11        4PX         0.28024   0.22359   0.80653   0.02102   0.02138
  12        4PY         0.47250   0.42210   1.40865   0.03824   0.03530
  13        4PZ         0.00055   0.00242  -0.07945   0.68567   1.24105
  14 2   H  1S         -0.02869  -0.03309  -0.07654  -0.00204  -0.00160
  15        2S         -0.56136  -0.31396  -0.91142  -0.01809  -0.01218
  16        3S          0.32049   0.06180   0.64065   0.02410   0.02208
  17 3   H  1S         -0.03009  -0.03603  -0.07423  -0.00200  -0.00150
  18        2S         -0.56553  -0.34949  -0.88993  -0.01810  -0.01025
  19        3S          0.31661   0.06804   0.60967   0.02337   0.02167
  20 4   C  1S         -0.00059  -0.00313   0.05098   0.00260   0.00064
  21        2S         -0.00457   0.00236   0.08880   0.00474   0.00120
  22        2PX         0.00968   0.05403   0.02740  -0.00021   0.00196
  23        2PY         0.01698   0.09452   0.05013  -0.00037   0.00370
  24        2PZ        -0.00377  -0.00181   0.00406  -0.15273   0.19229
  25        3S          0.07993  -0.28390  -0.23548  -0.01924  -0.00217
  26        3PX        -0.03965   0.23223   0.05647  -0.00060   0.00693
  27        3PY        -0.06749   0.40846   0.10218  -0.00118   0.01286
  28        3PZ        -0.01066  -0.00721   0.01448  -0.63149   0.68238
  29        4S         -0.91455   0.78846  -3.08319  -0.08371  -0.05836
  30        4PX         1.28331  -0.34975   0.61482   0.00909   0.02008
  31        4PY         2.27682  -0.57606   1.03331   0.01414   0.03586
  32        4PZ        -0.03233  -0.01699   0.03914   0.69407  -1.23778
  33 5   H  1S         -0.04435  -0.06513   0.06348   0.00188   0.00150
  34        2S         -0.81498  -0.66927   0.80489   0.02954   0.00536
  35        3S         -0.21397   0.27743  -0.54330  -0.00512  -0.02188
  36 6   H  1S         -0.04255  -0.06329   0.06395   0.00194   0.00156
  37        2S         -0.78998  -0.64220   0.79838   0.02925   0.00629
  38        3S         -0.21039   0.28776  -0.56322  -0.00612  -0.02211
                          21        22        23        24        25
                           V         V         V         V         V
     Eigenvalues --     0.66545   0.69091   0.77256   0.77581   0.84165
   1 1   C  1S          0.00052  -0.00031   0.05306   0.07175   0.00082
   2        2S          0.00106  -0.00073   0.11201   0.15298   0.00180
   3        2PX        -0.12965   0.20035  -0.02248   0.11296  -0.01089
   4        2PY         0.07565  -0.11891  -0.03949   0.18742   0.01052
   5        2PZ        -0.00002   0.00012   0.00073   0.00456   0.00012
   6        3S         -0.00806   0.01135  -0.76198  -1.32824  -0.01586
   7        3PX        -0.60540   0.70457  -0.16198   0.44142  -0.23297
   8        3PY         0.35085  -0.41772  -0.28418   0.72733   0.15028
   9        3PZ        -0.00015   0.00049   0.00274   0.01595   0.00054
  10        4S          0.01525  -0.06695   0.77373   2.44888  -0.07120
  11        4PX         1.07999  -0.79344   0.11521  -0.70465   4.49347
  12        4PY        -0.62887   0.46288   0.19240  -1.03857  -2.60312
  13        4PZ         0.00007   0.00063   0.00770  -0.05187   0.00141
  14 2   H  1S          0.02258  -0.05915   0.01135   0.03232  -0.02736
  15        2S          0.12573  -0.64304   0.08717   0.08145  -1.57039
  16        3S         -1.02839   1.10869  -0.12023  -1.12247  -1.22724
  17 3   H  1S         -0.02213   0.05895   0.01115   0.03297   0.02956
  18        2S         -0.13452   0.67054   0.09243   0.06804   1.60096
  19        3S          1.02022  -1.09076  -0.12191  -1.21718   1.23260
  20 4   C  1S          0.00073  -0.00049   0.08501   0.02879   0.00065
  21        2S          0.00147  -0.00094   0.18091   0.06053   0.00140
  22        2PX        -0.15401  -0.18255  -0.09618   0.05569   0.00988
  23        2PY         0.08816   0.10262  -0.17093   0.10038  -0.00228
  24        2PZ        -0.00002  -0.00014   0.00487  -0.00114  -0.00013
  25        3S         -0.01012   0.00145  -1.50579  -0.33388  -0.01091
  26        3PX        -0.69202  -0.61351  -0.34979   0.29207   0.23500
  27        3PY         0.39772   0.34335  -0.62311   0.52331  -0.11556
  28        3PZ        -0.00016  -0.00051   0.01720  -0.00432  -0.00048
  29        4S          0.00872   0.04379   2.69498   0.04008   0.05271
  30        4PX         1.28736   0.70991   0.53865  -0.30039  -4.18076
  31        4PY        -0.73500  -0.40833   0.97921  -0.67101   2.34831
  32        4PZ         0.00029  -0.00038  -0.04998   0.02569  -0.00082
  33 5   H  1S         -0.02622  -0.05496   0.03464   0.00194  -0.02269
  34        2S         -0.15289  -0.56021   0.07839   0.06395  -1.40363
  35        3S          1.12841   0.96956  -1.13706   0.31390  -1.09767
  36 6   H  1S          0.02650   0.05462   0.03438   0.00263   0.02341
  37        2S          0.14912   0.53369   0.07267   0.03047   1.39840
  38        3S         -1.12954  -0.97156  -1.10167   0.26695   1.10322
                          26        27        28        29        30
                           V         V         V         V         V
     Eigenvalues --     0.95256   2.23155   2.28969   2.33306   2.40669
   1 1   C  1S          0.09581  -0.01020  -0.01455   0.00018  -0.00035
   2        2S          0.19910   0.00144  -0.01465   0.00059  -0.00030
   3        2PX        -0.09156  -0.07910  -0.13544   0.34439  -0.40684
   4        2PY        -0.15861  -0.14603  -0.23051  -0.19789   0.23416
   5        2PZ         0.00009  -0.01248  -0.01713  -0.00021  -0.00047
   6        3S         -1.54210  -0.18582  -0.03560  -0.00218  -0.00420
   7        3PX        -0.23404   0.07597   0.21425  -0.41235   0.56702
   8        3PY        -0.40018   0.15115   0.37624   0.23889  -0.32950
   9        3PZ        -0.00252   0.01241   0.02143   0.00032   0.00052
  10        4S          5.71277  -0.11052  -0.88745  -0.00439  -0.02942
  11        4PX         1.18461   0.05379  -0.19602  -0.04853   0.97005
  12        4PY         2.00078   0.07105  -0.35227   0.02042  -0.55062
  13        4PZ        -0.01691   0.00269   0.00774  -0.00015   0.00079
  14 2   H  1S          0.01545  -0.70785  -0.78967  -0.70906   0.65587
  15        2S         -0.28383   1.00599   1.18523   1.09324  -1.46419
  16        3S         -0.08850  -0.30012  -0.46816  -0.46922   0.36722
  17 3   H  1S          0.01557  -0.70125  -0.79584   0.69206  -0.67421
  18        2S         -0.26650   0.99859   1.19521  -1.07116   1.50105
  19        3S         -0.08083  -0.28146  -0.46373   0.45552  -0.36293
  20 4   C  1S         -0.09392  -0.01033   0.01217   0.00037   0.00019
  21        2S         -0.19482   0.00021   0.01221   0.00049   0.00032
  22        2PX        -0.09276   0.13381  -0.12422   0.30492   0.41748
  23        2PY        -0.15992   0.23576  -0.20824  -0.17613  -0.23629
  24        2PZ         0.00022  -0.01452   0.01708   0.00025   0.00006
  25        3S          1.50530  -0.16837   0.01770   0.00010  -0.00039
  26        3PX        -0.22934  -0.17056   0.21238  -0.38127  -0.58553
  27        3PY        -0.39894  -0.29743   0.35257   0.21861   0.33074
  28        3PZ         0.00333   0.01566  -0.02175  -0.00028  -0.00013
  29        4S         -5.68827  -0.16985   0.88756   0.01581   0.01491
  30        4PX         1.12333  -0.01576  -0.19251   0.10879  -0.85648
  31        4PY         1.97635  -0.03289  -0.32130  -0.06393   0.48841
  32        4PZ         0.01310   0.00470  -0.00634  -0.00014  -0.00060
  33 5   H  1S         -0.01791  -0.79009   0.67359   0.70880   0.68361
  34        2S          0.29562   1.14808  -1.02802  -1.02908  -1.45081
  35        3S          0.06331  -0.35754   0.40243   0.51388   0.42941
  36 6   H  1S         -0.01805  -0.78187   0.69698  -0.69276  -0.68415
  37        2S          0.30798   1.13427  -1.06086   1.00240   1.44727
  38        3S          0.06166  -0.35541   0.42495  -0.50767  -0.43314
                          31        32        33        34        35
                           V         V         V         V         V
     Eigenvalues --     2.67126   2.81757   2.87900   2.95129   3.14139
   1 1   C  1S          0.00046   0.00240  -0.01327  -0.00004  -0.00966
   2        2S          0.00032   0.00697  -0.04405  -0.00031  -0.02965
   3        2PX         0.00433   0.06927  -0.47347  -0.73060   0.44469
   4        2PY         0.00713   0.12181  -0.84957   0.40330   0.78505
   5        2PZ        -0.92400  -0.93126  -0.13209  -0.00099   0.00617
   6        3S         -0.00101  -0.05784   0.38743   0.00401   0.24953
   7        3PX        -0.00273  -0.12028   0.83804   0.87982  -0.42642
   8        3PY        -0.00452  -0.20978   1.48022  -0.47317  -0.75525
   9        3PZ         0.93893   1.13841   0.16609   0.00137  -0.00781
  10        4S          0.01137   0.13421  -0.87533  -0.01453  -0.48824
  11        4PX        -0.00248   0.09695  -0.71619  -0.66765   0.21358
  12        4PY        -0.00338   0.16926  -1.26835   0.35179   0.37887
  13        4PZ        -0.33783  -0.61635  -0.10556  -0.00109   0.00454
  14 2   H  1S          0.01148  -0.01938   0.26464  -0.37221  -0.21707
  15        2S         -0.01304   0.01226  -0.22108   0.38381   0.16456
  16        3S         -0.00294   0.03900  -0.29971   0.27361   0.06125
  17 3   H  1S          0.01161  -0.01856   0.25275   0.37715  -0.21206
  18        2S         -0.01343   0.01075  -0.20151  -0.38426   0.15997
  19        3S         -0.00332   0.03949  -0.30036  -0.28975   0.06327
  20 4   C  1S          0.00051  -0.00237   0.01360   0.00053  -0.00726
  21        2S          0.00053  -0.00734   0.04799   0.00132  -0.02275
  22        2PX        -0.00762   0.06156  -0.40211  -0.80628  -0.50632
  23        2PY        -0.01337   0.11039  -0.72739   0.44973  -0.89184
  24        2PZ        -0.92545   0.92896   0.13639   0.00071   0.01291
  25        3S         -0.00316   0.06310  -0.43247  -0.01069   0.19629
  26        3PX         0.00821  -0.11227   0.76291   0.96192   0.54396
  27        3PY         0.01421  -0.19936   1.36181  -0.52627   0.96431
  28        3PZ         0.94099  -1.13605  -0.17163  -0.00088  -0.01641
  29        4S          0.01606  -0.13730   0.90549   0.02879  -0.37393
  30        4PX        -0.00121   0.09549  -0.70535  -0.70044  -0.33347
  31        4PY        -0.00256   0.16839  -1.24355   0.37410  -0.59198
  32        4PZ        -0.33894   0.61507   0.10964   0.00060   0.01293
  33 5   H  1S          0.01108   0.02573  -0.29519   0.42005  -0.26266
  34        2S         -0.01373  -0.02084   0.26921  -0.43107   0.20634
  35        3S         -0.00123  -0.03656   0.28311  -0.24271   0.12398
  36 6   H  1S          0.01127   0.02616  -0.29279  -0.42855  -0.25602
  37        2S         -0.01432  -0.02183   0.27236   0.43896   0.20188
  38        3S         -0.00090  -0.03446   0.26652   0.24609   0.12190
                          36        37        38
                           V         V         V
     Eigenvalues --     3.31834  23.35203  23.70629
   1 1   C  1S         -0.00041  -1.41366  -1.45262
   2        2S         -0.00067   1.50764   1.57086
   3        2PX         0.78610  -0.00650   0.01207
   4        2PY        -0.44282  -0.01075   0.02121
   5        2PZ         0.00050  -0.00052  -0.00022
   6        3S          0.00218  -0.29591  -0.39976
   7        3PX        -1.12215   0.02399  -0.05568
   8        3PY         0.63145   0.04016  -0.09702
   9        3PZ        -0.00077   0.00146   0.00065
  10        4S         -0.02444   0.27393   0.76953
  11        4PX         1.96276  -0.02595   0.13247
  12        4PY        -1.11250  -0.04430   0.23022
  13        4PZ         0.00123  -0.00242  -0.00280
  14 2   H  1S          0.56297   0.01340   0.00723
  15        2S         -0.87545   0.00757  -0.01460
  16        3S         -0.46725  -0.08458  -0.03921
  17 3   H  1S         -0.57240   0.01472   0.00826
  18        2S          0.88873   0.00727  -0.01516
  19        3S          0.48480  -0.08599  -0.03997
  20 4   C  1S          0.00016  -1.44781   1.41842
  21        2S          0.00005   1.54416  -1.53397
  22        2PX        -0.71001   0.00603   0.01269
  23        2PY         0.40187   0.01079   0.02153
  24        2PZ        -0.00032  -0.00054   0.00014
  25        3S          0.00158  -0.30302   0.39055
  26        3PX         1.01181  -0.02227  -0.05679
  27        3PY        -0.57837  -0.03950  -0.09735
  28        3PZ         0.00049   0.00154  -0.00038
  29        4S          0.00131   0.27980  -0.76046
  30        4PX        -1.78265   0.02321   0.13219
  31        4PY         1.02067   0.04269   0.22664
  32        4PZ        -0.00083  -0.00253   0.00225
  33 5   H  1S          0.48222   0.01303  -0.00453
  34        2S         -0.75203   0.00812   0.01386
  35        3S         -0.42402  -0.08276   0.03750
  36 6   H  1S         -0.47961   0.01201  -0.00349
  37        2S          0.75002   0.00929   0.01293
  38        3S          0.42057  -0.08151   0.03626
     Density Matrix:
                           1         2         3         4         5
   1 1   C  1S          0.65940
   2        2S          0.56151   0.49200
   3        2PX        -0.00055  -0.00073   0.08433
   4        2PY        -0.00124  -0.00172   0.00356   0.08784
   5        2PZ         0.00009   0.00014  -0.00013  -0.00026   0.06444
   6        3S         -0.08892  -0.15382   0.00279   0.00615  -0.00022
   7        3PX         0.00087   0.00133   0.13057   0.00110  -0.00011
   8        3PY         0.00124   0.00191   0.00110   0.13132  -0.00024
   9        3PZ         0.00017   0.00029  -0.00022  -0.00042   0.10364
  10        4S         -0.07932  -0.11421  -0.01565  -0.02795   0.00059
  11        4PX         0.00027   0.00160   0.07024  -0.00452  -0.00053
  12        4PY         0.00061   0.00301  -0.00454   0.06540  -0.00094
  13        4PZ        -0.00009  -0.00022  -0.00080  -0.00137   0.09584
  14 2   H  1S         -0.02064  -0.03286   0.03471  -0.06324  -0.00115
  15        2S         -0.02292  -0.03664   0.04886  -0.08791  -0.00089
  16        3S          0.00056  -0.00072   0.02055  -0.03302  -0.00003
  17 3   H  1S         -0.02102  -0.03345  -0.07272  -0.00191  -0.00122
  18        2S         -0.02317  -0.03701  -0.10054  -0.00199  -0.00096
  19        3S          0.00058  -0.00071  -0.03840   0.00123  -0.00005
  20 4   C  1S          0.00609   0.00981  -0.01090  -0.01883  -0.00041
  21        2S          0.00977   0.01528  -0.01744  -0.03013  -0.00068
  22        2PX         0.01034   0.01653  -0.01241  -0.03210   0.00045
  23        2PY         0.01806   0.02887  -0.03224  -0.04970   0.00083
  24        2PZ        -0.00045  -0.00073  -0.00037  -0.00060   0.06434
  25        3S         -0.02631  -0.03996   0.04893   0.08457   0.00204
  26        3PX         0.01595   0.02470  -0.01822  -0.04576   0.00058
  27        3PY         0.02782   0.04312  -0.04587  -0.07124   0.00109
  28        3PZ        -0.00076  -0.00122  -0.00064  -0.00105   0.10297
  29        4S          0.00535   0.00393   0.02107   0.03663   0.00237
  30        4PX         0.00304   0.00631  -0.01301  -0.02099   0.00068
  31        4PY         0.00524   0.01090  -0.02101  -0.03752   0.00129
  32        4PZ        -0.00065  -0.00104  -0.00099  -0.00166   0.09593
  33 5   H  1S          0.00419   0.00688  -0.00169  -0.01235  -0.00047
  34        2S          0.00631   0.01049   0.00353  -0.02494  -0.00002
  35        3S          0.00323   0.00474   0.00425  -0.01752   0.00008
  36 6   H  1S          0.00415   0.00680  -0.00992  -0.00771  -0.00048
  37        2S          0.00618   0.01028  -0.02343  -0.00938  -0.00003
  38        3S          0.00317   0.00464  -0.01727  -0.00504   0.00006
                           6         7         8         9        10
   6        3S          0.45249
   7        3PX        -0.00172   0.20248
   8        3PY        -0.00169  -0.00476   0.19681
   9        3PZ        -0.00061  -0.00019  -0.00037   0.16669
  10        4S          0.27304  -0.02648  -0.04785   0.00078   0.18191
  11        4PX        -0.00684   0.10927  -0.01022  -0.00086  -0.01531
  12        4PY        -0.01240  -0.01023   0.09845  -0.00151  -0.02870
  13        4PZ         0.00099  -0.00107  -0.00181   0.15414   0.00207
  14 2   H  1S          0.08785   0.05593  -0.09867  -0.00191   0.06935
  15        2S          0.09805   0.07910  -0.13669  -0.00150   0.08156
  16        3S          0.00610   0.03360  -0.05075  -0.00005   0.01112
  17 3   H  1S          0.08948  -0.11391  -0.00133  -0.00200   0.06917
  18        2S          0.09915  -0.15730  -0.00019  -0.00158   0.08037
  19        3S          0.00622  -0.05983   0.00375  -0.00007   0.01034
  20 4   C  1S         -0.02660  -0.01701  -0.02942  -0.00071   0.00511
  21        2S         -0.04025  -0.02645  -0.04574  -0.00114   0.00381
  22        2PX        -0.04621  -0.01763  -0.04546   0.00078  -0.01736
  23        2PY        -0.08082  -0.04575  -0.07077   0.00142  -0.03054
  24        2PZ         0.00216  -0.00050  -0.00081   0.10347   0.00235
  25        3S          0.10249   0.07185   0.12433   0.00342   0.00115
  26        3PX        -0.06677  -0.02602  -0.06458   0.00102  -0.02580
  27        3PY        -0.11671  -0.06493  -0.10137   0.00189  -0.04534
  28        3PZ         0.00359  -0.00088  -0.00143   0.16560   0.00391
  29        4S          0.00199   0.03192   0.05566   0.00395  -0.03222
  30        4PX        -0.02237  -0.01940  -0.02941   0.00114  -0.00628
  31        4PY        -0.03878  -0.02954  -0.05412   0.00213  -0.01062
  32        4PZ         0.00304  -0.00139  -0.00231   0.15428   0.00362
  33 5   H  1S         -0.02048  -0.00063  -0.01769  -0.00069  -0.01480
  34        2S         -0.03135   0.00860  -0.03666   0.00006  -0.01935
  35        3S         -0.01220   0.00810  -0.02634   0.00014  -0.00357
  36 6   H  1S         -0.02018  -0.01493  -0.00926  -0.00070  -0.01474
  37        2S         -0.03069  -0.03588  -0.01045   0.00005  -0.01942
  38        3S         -0.01189  -0.02668  -0.00592   0.00012  -0.00374
                          11        12        13        14        15
  11        4PX         0.06004
  12        4PY        -0.00896   0.05077
  13        4PZ        -0.00126  -0.00217   0.14255
  14 2   H  1S          0.03338  -0.05406  -0.00098   0.08142
  15        2S          0.04804  -0.07474  -0.00038   0.10953   0.14942
  16        3S          0.02088  -0.02760   0.00021   0.03659   0.05218
  17 3   H  1S         -0.06310   0.00179  -0.00101  -0.01317  -0.02469
  18        2S         -0.08752   0.00426  -0.00040  -0.02462  -0.04268
  19        3S         -0.03358   0.00442   0.00021  -0.01798  -0.02720
  20 4   C  1S         -0.00321  -0.00574  -0.00062   0.00424   0.00671
  21        2S         -0.00660  -0.01174  -0.00101   0.00700   0.01120
  22        2PX        -0.01332  -0.01988   0.00108   0.00187  -0.00267
  23        2PY        -0.02001  -0.03661   0.00195   0.01145   0.02420
  24        2PZ        -0.00069  -0.00116   0.09569  -0.00053  -0.00016
  25        3S          0.02333   0.04130   0.00296  -0.02106  -0.03365
  26        3PX        -0.02049  -0.02809   0.00147   0.00105  -0.00719
  27        3PY        -0.02828  -0.05331   0.00267   0.01702   0.03624
  28        3PZ        -0.00113  -0.00192   0.15315  -0.00077  -0.00016
  29        4S          0.00827   0.01535   0.00361  -0.01775  -0.02424
  30        4PX        -0.01486  -0.01237   0.00137  -0.00157  -0.00834
  31        4PY        -0.01240  -0.02952   0.00252   0.01544   0.02741
  32        4PZ        -0.00138  -0.00236   0.14269  -0.00043   0.00026
  33 5   H  1S          0.00211  -0.01567  -0.00035   0.01122   0.02336
  34        2S          0.00936  -0.02734   0.00046   0.02380   0.04445
  35        3S          0.00761  -0.01576   0.00030   0.01667   0.02790
  36 6   H  1S         -0.01468  -0.00580  -0.00036  -0.00906  -0.01814
  37        2S         -0.02839  -0.00514   0.00045  -0.01884  -0.03429
  38        3S         -0.01733  -0.00110   0.00029  -0.01022  -0.01782
                          16        17        18        19        20
  16        3S          0.02087
  17 3   H  1S         -0.01815   0.08235
  18        2S         -0.02732   0.10979   0.14847
  19        3S         -0.01281   0.03616   0.05116   0.02024
  20 4   C  1S          0.00372   0.00430   0.00677   0.00373   0.65948
  21        2S          0.00547   0.00710   0.01129   0.00549   0.56157
  22        2PX        -0.00348   0.00896   0.02212   0.01664   0.00117
  23        2PY         0.01760   0.00739   0.00970   0.00568   0.00187
  24        2PZ         0.00005  -0.00052  -0.00013   0.00007   0.00007
  25        3S         -0.01415  -0.02133  -0.03388  -0.01416  -0.08926
  26        3PX        -0.00699   0.01425   0.03484   0.02600  -0.00050
  27        3PY         0.02651   0.00951   0.01184   0.00712  -0.00105
  28        3PZ         0.00010  -0.00077  -0.00012   0.00013   0.00017
  29        4S         -0.00584  -0.01764  -0.02381  -0.00556  -0.08014
  30        4PX        -0.00700   0.01396   0.02751   0.01703  -0.00020
  31        4PY         0.01603   0.00640   0.00642   0.00188  -0.00022
  32        4PZ         0.00028  -0.00043   0.00029   0.00030  -0.00006
  33 5   H  1S          0.01621  -0.00911  -0.01821  -0.00946  -0.02004
  34        2S          0.02744  -0.01879  -0.03411  -0.01702  -0.02209
  35        3S          0.01467  -0.01017  -0.01764  -0.00901   0.00059
  36 6   H  1S         -0.00950   0.01122   0.02317   0.01587  -0.01987
  37        2S         -0.01726   0.02386   0.04423   0.02698  -0.02213
  38        3S         -0.00918   0.01668   0.02775   0.01445   0.00050
                          21        22        23        24        25
  21        2S          0.49206
  22        2PX         0.00168   0.08264
  23        2PY         0.00266   0.00376   0.08757
  24        2PZ         0.00011   0.00013   0.00019   0.06427
  25        3S         -0.15425  -0.00542  -0.00868  -0.00011   0.45370
  26        3PX        -0.00075   0.12853   0.00195   0.00007  -0.00015
  27        3PY        -0.00159   0.00203   0.13131   0.00008   0.00061
  28        3PZ         0.00028   0.00019   0.00030   0.10285  -0.00053
  29        4S         -0.11579   0.01372   0.02321   0.00059   0.27849
  30        4PX        -0.00147   0.07322  -0.00515   0.00046   0.00628
  31        4PY        -0.00228  -0.00516   0.06718   0.00084   0.00999
  32        4PZ        -0.00017   0.00076   0.00135   0.09581   0.00088
  33 5   H  1S         -0.03193  -0.03351   0.06346  -0.00124   0.08538
  34        2S         -0.03531  -0.04999   0.08843  -0.00096   0.09447
  35        3S         -0.00061  -0.02283   0.03354  -0.00009   0.00564
  36 6   H  1S         -0.03168   0.07114   0.00297  -0.00119   0.08472
  37        2S         -0.03538   0.10122   0.00110  -0.00088   0.09462
  38        3S         -0.00073   0.04053  -0.00308  -0.00007   0.00586
                          26        27        28        29        30
  26        3PX         0.20025
  27        3PY        -0.00248   0.19745
  28        3PZ         0.00008   0.00010   0.16462
  29        4S          0.02529   0.04266   0.00071   0.18667
  30        4PX         0.11453  -0.01070   0.00073   0.01558   0.06659
  31        4PY        -0.01082   0.10157   0.00134   0.02522  -0.01056
  32        4PZ         0.00096   0.00172   0.15334   0.00191   0.00114
  33 5   H  1S         -0.05360   0.09949  -0.00206   0.06689  -0.03461
  34        2S         -0.08040   0.13811  -0.00160   0.07723  -0.05236
  35        3S         -0.03717   0.05170  -0.00015   0.00932  -0.02437
  36 6   H  1S          0.11238   0.00392  -0.00198   0.06739   0.06577
  37        2S          0.15971   0.00002  -0.00150   0.07870   0.09394
  38        3S          0.06364  -0.00630  -0.00012   0.01006   0.03777
                          31        32        33        34        35
  31        4PY         0.05382
  32        4PZ         0.00210   0.14286
  33 5   H  1S          0.05584  -0.00108   0.08070
  34        2S          0.07767  -0.00043   0.11004   0.15250
  35        3S          0.02923   0.00015   0.03819   0.05549   0.02302
  36 6   H  1S         -0.00182  -0.00105  -0.01240  -0.02606  -0.02001
  37        2S         -0.00628  -0.00038  -0.02619  -0.04856  -0.03180
  38        3S         -0.00647   0.00015  -0.02023  -0.03196  -0.01578
                          36        37        38
  36 6   H  1S          0.08000
  37        2S          0.10966   0.15274
  38        3S          0.03824   0.05581   0.02320
    Full Mulliken population analysis:
                           1         2         3         4         5
   1 1   C  1S          0.65940
   2        2S          0.49325   0.49200
   3        2PX         0.00000   0.00000   0.08433
   4        2PY         0.00000   0.00000   0.00000   0.08784
   5        2PZ         0.00000   0.00000   0.00000   0.00000   0.06444
   6        3S         -0.02927  -0.06442   0.00000   0.00000   0.00000
   7        3PX         0.00000   0.00000   0.08215   0.00000   0.00000
   8        3PY         0.00000   0.00000   0.00000   0.08261   0.00000
   9        3PZ         0.00000   0.00000   0.00000   0.00000   0.06520
  10        4S         -0.01220  -0.02137   0.00000   0.00000   0.00000
  11        4PX         0.00000   0.00000   0.01547   0.00000   0.00000
  12        4PY         0.00000   0.00000   0.00000   0.01440   0.00000
  13        4PZ         0.00000   0.00000   0.00000   0.00000   0.02111
  14 2   H  1S         -0.00023  -0.00033   0.00181   0.00568   0.00000
  15        2S         -0.00168  -0.00321   0.00428   0.01325   0.00000
  16        3S          0.00004  -0.00007   0.00069   0.00190   0.00000
  17 3   H  1S         -0.00025  -0.00036   0.00786   0.00000   0.00000
  18        2S         -0.00173  -0.00331   0.01772   0.00000   0.00000
  19        3S          0.00005  -0.00007   0.00256  -0.00000   0.00000
  20 4   C  1S          0.00000   0.00000  -0.00002  -0.00006   0.00000
  21        2S          0.00000  -0.00000  -0.00002  -0.00005   0.00000
  22        2PX        -0.00002  -0.00002   0.00011   0.00086   0.00000
  23        2PY        -0.00006  -0.00005   0.00086   0.00197   0.00000
  24        2PZ        -0.00000  -0.00000  -0.00000  -0.00000   0.00042
  25        3S         -0.00059  -0.00100   0.00256   0.00765  -0.00000
  26        3PX        -0.00054  -0.00099   0.00019   0.00554   0.00000
  27        3PY        -0.00163  -0.00299   0.00555   0.01070   0.00000
  28        3PZ        -0.00000  -0.00000  -0.00000  -0.00000   0.00612
  29        4S          0.00034   0.00030   0.00096   0.00288  -0.00000
  30        4PX        -0.00018  -0.00045  -0.00070   0.00145   0.00000
  31        4PY        -0.00053  -0.00134   0.00146   0.00097   0.00000
  32        4PZ        -0.00000  -0.00000  -0.00000  -0.00000   0.00903
  33 5   H  1S          0.00000   0.00000  -0.00000  -0.00000   0.00000
  34        2S          0.00001   0.00002   0.00000  -0.00031   0.00000
  35        3S          0.00008   0.00013   0.00001  -0.00070  -0.00000
  36 6   H  1S          0.00000   0.00000  -0.00000  -0.00000   0.00000
  37        2S          0.00001   0.00002  -0.00023  -0.00006   0.00000
  38        3S          0.00007   0.00013  -0.00056  -0.00011  -0.00000
                           6         7         8         9        10
   6        3S          0.45249
   7        3PX         0.00000   0.20248
   8        3PY         0.00000   0.00000   0.19681
   9        3PZ         0.00000   0.00000   0.00000   0.16669
  10        4S          0.21152   0.00000   0.00000   0.00000   0.18191
  11        4PX         0.00000   0.07140   0.00000   0.00000   0.00000
  12        4PY         0.00000   0.00000   0.06433   0.00000   0.00000
  13        4PZ         0.00000   0.00000   0.00000   0.10072   0.00000
  14 2   H  1S          0.01619   0.01073   0.03257   0.00002   0.01836
  15        2S          0.04134   0.01943   0.05775   0.00002   0.04706
  16        3S          0.00281   0.00393   0.01020   0.00000   0.00839
  17 3   H  1S          0.01690   0.04422   0.00000   0.00002   0.01849
  18        2S          0.04239   0.07729   0.00000   0.00002   0.04671
  19        3S          0.00289   0.01388  -0.00000   0.00000   0.00784
  20 4   C  1S         -0.00060  -0.00058  -0.00173   0.00000   0.00032
  21        2S         -0.00101  -0.00106  -0.00318   0.00000   0.00029
  22        2PX         0.00242   0.00018   0.00550   0.00000   0.00079
  23        2PY         0.00731   0.00554   0.01063   0.00000   0.00240
  24        2PZ         0.00000  -0.00000  -0.00000   0.00615   0.00000
  25        3S          0.02188   0.01348   0.04039  -0.00000   0.00044
  26        3PX         0.01253  -0.00126   0.01844   0.00000   0.00398
  27        3PY         0.03791   0.01854   0.02848   0.00000   0.01211
  28        3PZ         0.00000  -0.00000  -0.00000   0.03535   0.00000
  29        4S          0.00076   0.00492   0.01486  -0.00000  -0.02023
  30        4PX         0.00629  -0.00398   0.00582   0.00000   0.00190
  31        4PY         0.01887   0.00585   0.00125   0.00000   0.00557
  32        4PZ         0.00000  -0.00000  -0.00000   0.04933   0.00000
  33 5   H  1S         -0.00005  -0.00000  -0.00019   0.00000  -0.00079
  34        2S         -0.00121   0.00006  -0.00321  -0.00000  -0.00324
  35        3S         -0.00199   0.00011  -0.00424  -0.00000  -0.00129
  36 6   H  1S         -0.00005  -0.00012  -0.00005   0.00000  -0.00077
  37        2S         -0.00115  -0.00252  -0.00051  -0.00000  -0.00320
  38        3S         -0.00191  -0.00351  -0.00054  -0.00000  -0.00133
                          11        12        13        14        15
  11        4PX         0.06004
  12        4PY         0.00000   0.05077
  13        4PZ         0.00000   0.00000   0.14255
  14 2   H  1S          0.00628   0.01749   0.00001   0.08142
  15        2S          0.01521   0.04070   0.00001   0.07737   0.14942
  16        3S          0.00518   0.01177  -0.00000   0.01367   0.04117
  17 3   H  1S          0.02364  -0.00000   0.00001  -0.00001  -0.00065
  18        2S          0.05506  -0.00001   0.00001  -0.00065  -0.00535
  19        3S          0.01650  -0.00001  -0.00000  -0.00200  -0.00793
  20 4   C  1S         -0.00019  -0.00058   0.00000   0.00000   0.00002
  21        2S         -0.00047  -0.00144   0.00000   0.00000   0.00003
  22        2PX        -0.00072   0.00138   0.00000  -0.00000   0.00000
  23        2PY         0.00139   0.00095   0.00000  -0.00000  -0.00036
  24        2PZ        -0.00000  -0.00000   0.00901   0.00000   0.00000
  25        3S          0.00656   0.02010  -0.00000  -0.00007  -0.00149
  26        3PX        -0.00421   0.00556   0.00000  -0.00000   0.00004
  27        3PY         0.00560   0.00123   0.00000  -0.00023  -0.00357
  28        3PZ        -0.00000  -0.00000   0.04897   0.00000   0.00000
  29        4S          0.00251   0.00805  -0.00000  -0.00104  -0.00436
  30        4PX        -0.00716   0.00313   0.00000   0.00001   0.00018
  31        4PY         0.00314  -0.00561   0.00000  -0.00245  -0.01034
  32        4PZ        -0.00000  -0.00000   0.08963   0.00000  -0.00000
  33 5   H  1S          0.00003  -0.00232   0.00000   0.00000   0.00000
  34        2S          0.00027  -0.00980  -0.00000   0.00000   0.00016
  35        3S          0.00029  -0.00727  -0.00000   0.00023   0.00147
  36 6   H  1S         -0.00176  -0.00048   0.00000  -0.00000  -0.00004
  37        2S         -0.00829  -0.00104  -0.00000  -0.00004  -0.00090
  38        3S         -0.00656  -0.00029  -0.00000  -0.00046  -0.00245
                          16        17        18        19        20
  16        3S          0.02087
  17 3   H  1S         -0.00202   0.08235
  18        2S         -0.00796   0.07755   0.14847
  19        3S         -0.00665   0.01351   0.04036   0.02024
  20 4   C  1S          0.00009   0.00000   0.00002   0.00009   0.65948
  21        2S          0.00016   0.00000   0.00003   0.00016   0.49331
  22        2PX         0.00001  -0.00000  -0.00028  -0.00059   0.00000
  23        2PY        -0.00074  -0.00000  -0.00008  -0.00013   0.00000
  24        2PZ        -0.00000   0.00000   0.00000  -0.00000   0.00000
  25        3S         -0.00244  -0.00007  -0.00151  -0.00246  -0.02938
  26        3PX         0.00007  -0.00016  -0.00289  -0.00365   0.00000
  27        3PY        -0.00444  -0.00007  -0.00065  -0.00066   0.00000
  28        3PZ        -0.00000   0.00000   0.00000  -0.00000   0.00000
  29        4S         -0.00219  -0.00104  -0.00431  -0.00210  -0.01232
  30        4PX         0.00019  -0.00186  -0.00870  -0.00672   0.00000
  31        4PY        -0.00756  -0.00057  -0.00134  -0.00049   0.00000
  32        4PZ        -0.00000   0.00000  -0.00000  -0.00000   0.00000
  33 5   H  1S          0.00023  -0.00000  -0.00004  -0.00043  -0.00021
  34        2S          0.00144  -0.00004  -0.00092  -0.00237  -0.00158
  35        3S          0.00247  -0.00046  -0.00246  -0.00288   0.00005
  36 6   H  1S         -0.00043   0.00000   0.00000   0.00022  -0.00020
  37        2S         -0.00237   0.00000   0.00015   0.00141  -0.00156
  38        3S         -0.00291   0.00023   0.00145   0.00242   0.00004
                          21        22        23        24        25
  21        2S          0.49206
  22        2PX         0.00000   0.08264
  23        2PY         0.00000   0.00000   0.08757
  24        2PZ         0.00000   0.00000   0.00000   0.06427
  25        3S         -0.06460   0.00000   0.00000   0.00000   0.45370
  26        3PX         0.00000   0.08086   0.00000   0.00000   0.00000
  27        3PY         0.00000   0.00000   0.08261   0.00000   0.00000
  28        3PZ         0.00000   0.00000   0.00000   0.06471   0.00000
  29        4S         -0.02167   0.00000   0.00000   0.00000   0.21574
  30        4PX         0.00000   0.01613   0.00000   0.00000   0.00000
  31        4PY         0.00000   0.00000   0.01479   0.00000   0.00000
  32        4PZ         0.00000   0.00000   0.00000   0.02110   0.00000
  33 5   H  1S         -0.00030   0.00149   0.00563   0.00000   0.01529
  34        2S         -0.00302   0.00385   0.01362   0.00000   0.03921
  35        3S         -0.00006   0.00068   0.00200   0.00000   0.00258
  36 6   H  1S         -0.00028   0.00683   0.00002   0.00000   0.01490
  37        2S         -0.00297   0.01725   0.00001   0.00000   0.03887
  38        3S         -0.00007   0.00270  -0.00001   0.00000   0.00267
                          26        27        28        29        30
  26        3PX         0.20025
  27        3PY         0.00000   0.19745
  28        3PZ         0.00000   0.00000   0.16462
  29        4S          0.00000   0.00000   0.00000   0.18667
  30        4PX         0.07484   0.00000   0.00000   0.00000   0.06659
  31        4PY         0.00000   0.06637   0.00000   0.00000   0.00000
  32        4PZ         0.00000   0.00000   0.10020   0.00000   0.00000
  33 5   H  1S          0.00898   0.03333   0.00002   0.01753   0.00579
  34        2S          0.01746   0.05997   0.00002   0.04419   0.01477
  35        3S          0.00388   0.01078   0.00000   0.00700   0.00540
  36 6   H  1S          0.04147   0.00010   0.00002   0.01754   0.02451
  37        2S          0.07703   0.00000   0.00002   0.04480   0.05914
  38        3S          0.01483  -0.00010   0.00000   0.00754   0.01873
                          31        32        33        34        35
  31        4PY         0.05382
  32        4PZ         0.00000   0.14286
  33 5   H  1S          0.01867   0.00001   0.08070
  34        2S          0.04381   0.00001   0.07773   0.15250
  35        3S          0.01296  -0.00000   0.01427   0.04378   0.02302
  36 6   H  1S         -0.00005   0.00001  -0.00001  -0.00080  -0.00236
  37        2S         -0.00027   0.00001  -0.00080  -0.00669  -0.00970
  38        3S         -0.00022  -0.00000  -0.00238  -0.00975  -0.00845
                          36        37        38
  36 6   H  1S          0.08000
  37        2S          0.07746   0.15274
  38        3S          0.01429   0.04403   0.02320
     Gross orbital populations:
                           1
   1 1   C  1S          1.10435
   2        2S          0.88586
   3        2PX         0.22703
   4        2PY         0.23640
   5        2PZ         0.16634
   6        3S          0.79285
   7        3PX         0.56116
   8        3PY         0.55600
   9        3PZ         0.42353
  10        4S          0.50366
  11        4PX         0.25920
  12        4PY         0.21100
  13        4PZ         0.41201
  14 2   H  1S          0.27434
  15        2S          0.46660
  16        3S          0.08550
  17 3   H  1S          0.27720
  18        2S          0.46504
  19        3S          0.08298
  20 4   C  1S          1.10441
  21        2S          0.88584
  22        2PX         0.22205
  23        2PY         0.23586
  24        2PZ         0.16567
  25        3S          0.79239
  26        3PX         0.55224
  27        3PY         0.55639
  28        3PZ         0.42005
  29        4S          0.50731
  30        4PX         0.27510
  31        4PY         0.21675
  32        4PZ         0.41218
  33 5   H  1S          0.27216
  34        2S          0.46994
  35        3S          0.08932
  36 6   H  1S          0.26997
  37        2S          0.47063
  38        3S          0.09072
          Condensed to atoms (all electrons):
               1          2          3          4          5          6
     1  C    5.031590   0.387605   0.388325   0.602306  -0.035616  -0.034842
     2  H    0.387605   0.516130  -0.033220  -0.040484   0.005993  -0.009589
     3  H    0.388325  -0.033220   0.513912  -0.040047  -0.009622   0.005884
     4  C    0.602306  -0.040484  -0.040047   5.057351   0.383815   0.383294
     5  H   -0.035616   0.005993  -0.009622   0.383815   0.527784  -0.040941
     6  H   -0.034842  -0.009589   0.005884   0.383294  -0.040941   0.527509
 Mulliken charges:
               1
     1  C   -0.339369
     2  H    0.173565
     3  H    0.174768
     4  C   -0.346235
     5  H    0.168587
     6  H    0.168685
 Sum of Mulliken charges =  -0.00000
 Mulliken charges with hydrogens summed into heavy atoms:
               1
     1  C    0.008964
     4  C   -0.008964
 Electronic spatial extent (au):  <R**2>=             83.7298
 Charge=             -0.0000 electrons
 Dipole moment (field-independent basis, Debye):
    X=              0.0026    Y=              0.0205    Z=             -0.1020  Tot=              0.1041
 Quadrupole moment (field-independent basis, Debye-Ang):
   XX=            -12.2080   YY=            -12.2130   ZZ=            -15.6689
   XY=              0.0235   XZ=             -0.0024   YZ=             -0.0053
 Traceless Quadrupole moment (field-independent basis, Debye-Ang):
   XX=              1.1553   YY=              1.1503   ZZ=             -2.3056
   XY=              0.0235   XZ=             -0.0024   YZ=             -0.0053
 Octapole moment (field-independent basis, Debye-Ang**2):
  XXX=             -0.3392  YYY=             -0.0834  ZZZ=             -0.0680  XYY=              0.2003
  XXY=             -0.0200  XXZ=             -0.1383  XZZ=             -0.0889  YZZ=             -0.0930
  YYZ=             -0.1822  XYZ=             -0.0381
 Hexadecapole moment (field-independent basis, Debye-Ang**3):
 XXXX=            -34.2998 YYYY=            -55.2090 ZZZZ=            -17.8066 XXXY=             -7.2428
 XXXZ=              0.0127 YYYX=            -10.6979 YYYZ=              0.0176 ZZZX=              0.0226
 ZZZY=              0.0388 XXYY=            -16.1901 XXZZ=             -9.9274 YYZZ=            -13.6457
 XXYZ=              0.0054 YYXZ=             -0.0002 ZZXY=             -3.2076
 N-N= 3.307035922602D+01 E-N=-2.478509575496D+02  KE= 7.815232104072D+01
 Orbital energies and kinetic energies (alpha):
                                 1                 2
   1         O               -10.290435         15.978519
   2         O               -10.287955         15.979819
   3         O                -0.863887          1.539360
   4         O                -0.672291          1.270625
   5         O                -0.559122          0.942000
   6         O                -0.509782          1.284126
   7         O                -0.436127          1.042893
   8         O                -0.356986          1.038820
   9         V                 0.079888          1.181854
  10         V                 0.141022          0.588745
  11         V                 0.164597          0.595962
  12         V                 0.170001          0.679724
  13         V                 0.240816          0.583553
  14         V                 0.373921          0.851229
  15         V                 0.392686          0.932826
  16         V                 0.399685          0.782534
  17         V                 0.463684          1.193812
  18         V                 0.488415          1.419720
  19         V                 0.493708          1.301291
  20         V                 0.591078          1.653069
  21         V                 0.665453          1.571317
  22         V                 0.690915          2.147399
  23         V                 0.772555          2.438107
  24         V                 0.775811          2.303631
  25         V                 0.841646          1.083807
  26         V                 0.952561          3.428148
  27         V                 2.231555          3.926393
  28         V                 2.289692          4.030314
  29         V                 2.333064          4.303355
  30         V                 2.406688          4.516682
  31         V                 2.671261          6.301109
  32         V                 2.817569          6.305510
  33         V                 2.878995          6.137582
  34         V                 2.951287          6.226294
  35         V                 3.141394          6.821444
  36         V                 3.318336          6.401684
  37         V                23.352026         60.074280
  38         V                23.706288         60.204178
 Total kinetic energy from orbitals= 7.815232104072D+01
 Calling FoFJK, ICntrl=      2127 FMM=F ISym2X=0 I1Cent= 0 IOpClX= 0 NMat=1 NMatS=1 NMatT=0.
 -------------------------------------------------------------------
 Center     Atomic                   Forces (Hartrees/Bohr)
 Number     Number              X              Y              Z
 -------------------------------------------------------------------
      1        6           0.012011316    0.008874718   -0.003940953
      2        1          -0.008740297    0.005071138    0.002010602
      3        1           0.003011490   -0.004700971    0.001865615
      4        6           0.009027322    0.011346566   -0.004696220
      5        1           0.002079800   -0.014252294    0.002334740
      6        1          -0.017389629   -0.006339157    0.002426215
 -------------------------------------------------------------------
 Cartesian Forces:  Max     0.017389629 RMS     0.008072693

 GradGradGradGradGradGradGradGradGradGradGradGradGradGradGradGradGradGrad
 Berny optimization.
 Search for a local minimum.
 Step number   1 out of a maximum of    2
 All quantities printed in internal units (Hartrees-Bohrs-Radians)
 Second derivative matrix not updated -- first step.
 The second derivative matrix:
                          X1        Y1        Z1        X2        Y2
           X1           0.75909
           Y1           0.09727   0.86106
           Z1           0.00576   0.00923   0.17154
           X2          -0.16475   0.09669   0.00217   0.14200
           Y2           0.10272  -0.28509  -0.00766  -0.11596   0.27394
           Z2           0.00338  -0.00958  -0.05529  -0.00311   0.00794
           X3          -0.35182  -0.00052  -0.00814  -0.00012  -0.00006
           Y3          -0.00641  -0.11006  -0.00199   0.03248   0.01884
           Z3          -0.01041  -0.00192  -0.05601   0.00155   0.00057
           X4          -0.26777  -0.17885  -0.00088   0.02289   0.01329
           Y4          -0.17929  -0.47416  -0.00149  -0.01322  -0.00768
           Z4           0.00126   0.00225  -0.09469  -0.00061  -0.00085
           X5           0.02346  -0.01355   0.00066  -0.00001   0.00000
           Y5           0.01171  -0.00677   0.00089   0.00000  -0.00000
           Z5          -0.00051   0.00031   0.01733   0.00026  -0.00014
           X6           0.00180  -0.00104   0.00042  -0.00001   0.00000
           Y6          -0.02600   0.01502   0.00101   0.00000  -0.00000
           Z6           0.00052  -0.00028   0.01713  -0.00026   0.00014
                          Z2        X3        Y3        Z3        X4
           Z2           0.02877
           X3          -0.00029   0.35188
           Y3           0.00164   0.00062   0.07581
           Z3           0.01056   0.00887   0.00133   0.02940
           X4           0.00057   0.00008  -0.02670  -0.00056   0.71172
           Y4          -0.00031  -0.00005   0.01542   0.00034   0.12365
           Z4           0.01596  -0.00044  -0.00098   0.01605  -0.00552
           X5          -0.00027  -0.00001   0.00000   0.00027  -0.14573
           Y5           0.00017   0.00000  -0.00000  -0.00017   0.09212
           Z5           0.00929   0.00026  -0.00016  -0.00940  -0.00331
           X6          -0.00028  -0.00001   0.00000   0.00028  -0.32119
           Y6           0.00015   0.00000  -0.00000  -0.00015  -0.02351
           Z6          -0.00929  -0.00026   0.00016   0.00940   0.00969
                          Y4        Z4        X5        Y5        Z5
           Y4           0.85903
           Z4          -0.01028   0.17677
           X5           0.08382  -0.00216   0.12455
           Y5          -0.28795   0.00779  -0.10272   0.27855
           Z5           0.00969  -0.05711   0.00291  -0.00831   0.02969
           X6          -0.01492   0.00747  -0.00226  -0.00112   0.00039
           Y6          -0.10465   0.00207   0.03244   0.01617  -0.00139
           Z6           0.00204  -0.05699  -0.00141  -0.00038   0.01021
                          X6        Y6        Z6
           X6           0.32167
           Y6           0.01707   0.07346
           Z6          -0.00828  -0.00168   0.02955
 ITU=  0
     Eigenvalues ---    0.03742   0.04383   0.09224   0.10072   0.13533
     Eigenvalues ---    0.17421   0.26491   0.28986   0.52913   0.69897
     Eigenvalues ---    0.97419   1.56569
 Angle between quadratic step and forces=  34.89 degrees.
 Linear search not attempted -- first point.
 B after Tr=     0.006003    0.008131   -0.010445
         Rot=    1.000000   -0.000015    0.000007   -0.000120 Ang=  -0.01 deg.
 Variable       Old X    -DE/DX   Delta X   Delta X   Delta X     New X
                                 (Linear)    (Quad)   (Total)
    X1       -0.63434   0.01201   0.00000   0.01935   0.02561  -0.60872
    Y1       -1.09900   0.00887   0.00000   0.02397   0.03196  -1.06705
    Z1        0.01268  -0.00394   0.00000  -0.02173  -0.03222  -0.01954
    X2        0.40605  -0.00874   0.00000  -0.03195  -0.02525   0.38080
    Y2       -2.88838   0.00507   0.00000   0.02253   0.03076  -2.85762
    Z2       -0.04307   0.00201   0.00000   0.02694   0.01642  -0.02665
    X3       -2.68687   0.00301   0.00000   0.02680   0.03307  -2.65379
    Y3       -1.10385  -0.00470   0.00000  -0.01963  -0.01214  -1.11599
    Z3       -0.04376   0.00187   0.00000   0.02630   0.01579  -0.02797
    X4        0.62987   0.00903   0.00000   0.00547   0.01121   0.64108
    Y4        1.08967   0.01135   0.00000   0.00970   0.01799   1.10765
    Z4        0.01040  -0.00470   0.00000  -0.02150  -0.03190  -0.02149
    X5       -0.30451   0.00208   0.00000  -0.01066  -0.00536  -0.30987
    Y5        2.95841  -0.01425   0.00000  -0.04335  -0.03529   2.92311
    Z5       -0.05032   0.00233   0.00000   0.02663   0.01627  -0.03405
    X6        2.72693  -0.01739   0.00000  -0.04500  -0.03929   2.68764
    Y6        1.23346  -0.00634   0.00000  -0.04205  -0.03327   1.20019
    Z6       -0.04957   0.00243   0.00000   0.02602   0.01564  -0.03393
         Item               Value     Threshold  Converged?
 Maximum Force            0.017390     0.000450     NO 
 RMS     Force            0.008073     0.000300     NO 
 Maximum Displacement     0.039288     0.001800     NO 
 RMS     Displacement     0.025777     0.001200     NO 
 Predicted change in Energy=-1.615553D-03
 GradGradGradGradGradGradGradGradGradGradGradGradGradGradGradGradGradGrad

 Unable to Open any file for archive entry.
 1\1\GINC-BHD0012\Force\RwB97XD\6-311G\C2H4\BWEIGHT\11-Jan-2023\0\\# WB
 97XD/6-311G SCF=XQC FORCE nosym pop=full guess=read\\MD Step 999\\0,1\
 C,-0.33567642,-0.58156784,0.00671017\H,0.21487433,-1.52846234,-0.02279
 072\H,-1.42182863,-0.58413438,-0.02315476\C,0.33331082,0.57662593,0.00
 550579\H,-0.16113764,1.56552067,-0.02662753\H,1.44302766,0.6527191,-0.
 02623345\\Version=ES64L-G16RevC.01\HF=-78.5556647\RMSD=4.606e-09\RMSF=
 8.073e-03\Dipole=0.0010108,0.0080617,-0.0401399\Quadrupole=0.8589317,0
 .855201,-1.7141327,0.0174458,-0.0017853,-0.003973\PG=C01 [X(C2H4)]\\@
 The archive entry for this job was punched.


 THE RARE EARTHS PERPLEX US IN OUR RESEARCHES,
 BAFFLE US IN OUR SPECULATIONS, AND HAUNT US IN OUR
 VERY DREAMS.  THEY STRETCH LIKE AN UNKNOWN BEFORE US,
 MOCKING, MYSTIFYING, AND MURMURING STRANGE REVELATIONS
 AND POSSIBILITIES.  -- SIR WILLIAM CROOKE, 1832-1919
 Job cpu time:       0 days  0 hours  0 minutes 27.5 seconds.
 Elapsed time:       0 days  0 hours  0 minutes  8.9 seconds.
 File lengths (MBytes):  RWF=    272 Int=      0 D2E=      0 Chk=     32 Scr=     32
 Normal termination of Gaussian 16 at Wed Jan 11 18:45:27 2023.
