6
MD Step 0
C  -0.33763715 -0.58748864 0.00000000
H  0.19552659 -1.51519357 0.00000000
H  -1.40763715 -0.58748864 0.00000000
C  0.33763715 0.58748865 0.00000000
H  -0.19552659 1.51519357 0.00000000
H  1.40763715 0.58748865 0.00000000
6
MD Step 1
C  -0.33800605 -0.58783581 -0.00039445
H  0.19788918 -1.51298826 0.00235244
H  -1.40542194 -0.58521064 0.00234908
C  0.33721690 0.58704661 -0.00039493
H  -0.19318373 1.51768973 0.00235407
H  1.41012010 0.58991336 0.00235070
6
MD Step 2
C  -0.33831954 -0.58808713 -0.00078967
H  0.20027961 -1.51108693 0.00470948
H  -1.40352216 -0.58307698 0.00470285
C  0.33674838 0.58651199 -0.00079062
H  -0.19085252 1.52045813 0.00471261
H  1.41281710 0.59247513 0.00470579
6
MD Step 3
C  -0.33857474 -0.58824239 -0.00118626
H  0.20270018 -1.50949636 0.00707456
H  -1.40197880 -0.58109108 0.00706502
C  0.33623607 0.58588822 -0.00118755
H  -0.18852211 1.52347216 0.00707870
H  1.41566835 0.59516760 0.00706808
6
MD Step 4
C  -0.33877076 -0.58830377 -0.00158609
H  0.20515749 -1.50820870 0.00945867
H  -1.40081622 -0.57924789 0.00944704
C  0.33568349 0.58517844 -0.00158746
H  -0.18617192 1.52670717 0.00946278
H  1.41861855 0.59799092 0.00944761
6
MD Step 5
C  -0.33889645 -0.58826345 -0.00197993
H  0.20758891 -1.50727523 0.01180675
H  -1.40011480 -0.57760753 0.01179445
C  0.33510549 0.58439781 -0.00198097
H  -0.18384573 1.53006766 0.01180899
H  1.42154471 0.60087819 0.01178800
6
MD Step 6
C  -0.33894754 -0.58812059 -0.00236448
H  0.20996381 -1.50670487 0.01409884
H  -1.39990754 -0.57619394 0.01408805
C  0.33451104 0.58355631 -0.00236454
H  -0.18155105 1.53348994 0.01409643
H  1.42436027 0.60379695 0.01406775
6
MD Step 7
C  -0.33892835 -0.58788293 -0.00274389
H  0.21229333 -1.50645502 0.01635955
H  -1.40016958 -0.57498531 0.01635320
C  0.33390151 0.58265709 -0.00274210
H  -0.17925019 1.53695278 0.01634868
H  1.42702645 0.60675884 0.01630983
6
MD Step 8
C  -0.33883829 -0.58755322 -0.00311635
H  0.21455059 -1.50651257 0.01857785
H  -1.40089897 -0.57399436 0.01857966
C  0.33328414 0.58170978 -0.00311161
H  -0.17694091 1.54039806 0.01855361
H  1.42947276 0.60973942 0.01850151
6
MD Step 9
C  -0.33867953 -0.58713677 -0.00348168
H  0.21671659 -1.50684902 0.02075254
H  -1.40207129 -0.57322284 0.02076694
C  0.33266429 0.58072277 -0.00347268
H  -0.17461146 1.54377740 0.02070890
H  1.43164388 0.61272381 0.02063993
6
MD Step 10
C  -0.33845111 -0.58663555 -0.00383549
H  0.21874608 -1.50745607 0.02285754
H  -1.40367519 -0.57269615 0.02288968
C  0.33205124 0.57970888 -0.00382076
H  -0.17227574 1.54701844 0.02278744
H  1.43346582 0.61567213 0.02269739
6
MD Step 11
C  -0.33816494 -0.58606412 -0.00418528
H  0.22066351 -1.50825090 0.02493740
H  -1.40561751 -0.57236788 0.02499263
C  0.33144204 0.57866922 -0.00416313
H  -0.16987836 1.55012149 0.02483267
H  1.43494266 0.61861519 0.02471723
6
MD Step 12
C  -0.33782012 -0.58542395 -0.00452479
H  0.22241142 -1.50922975 0.02695493
H  -1.40787815 -0.57227208 0.02703906
C  0.33084715 0.57761866 -0.00449345
H  -0.16744709 1.55300772 0.02680659
H  1.43600396 0.62150213 0.02666100
6
MD Step 13
C  -0.33742446 -0.58472492 -0.00485568
H  0.22397999 -1.51033962 0.02892031
H  -1.41038199 -0.57239424 0.02903909
C  0.33026868 0.57656406 -0.00481332
H  -0.16496439 1.55564924 0.02871856
H  1.43663488 0.62432969 0.02853808
6
MD Step 14
C  -0.33698099 -0.58397188 -0.00517415
H  0.22532782 -1.51155910 0.03081128
H  -1.41308074 -0.57275094 0.03097046
C  0.32971377 0.57551751 -0.00511897
H  -0.16244724 1.55798999 0.03054581
H  1.43679656 0.62706257 0.03032554
6
MD Step 15
C  -0.33649863 -0.58317531 -0.00548175
H  0.22644666 -1.51283495 0.03263742
H  -1.41589030 -0.57332576 0.03284219
C  0.32918379 0.57448554 -0.00541196
H  -0.15988335 1.56001060 0.03229739
H  1.43649077 0.62969776 0.03203281
6
MD Step 16
C  -0.33598303 -0.58234219 -0.00577636
H  0.22730844 -1.51413652 0.03438661
H  -1.41874637 -0.57412261 0.03464168
C  0.32868329 0.57347787 -0.00569031
H  -0.15728462 1.56167540 0.03396104
H  1.43570647 0.63221119 0.03364782
6
MD Step 17
C  -0.33544673 -0.58148622 -0.00606259
H  0.22792703 -1.51539517 0.03608661
H  -1.42154481 -0.57510460 0.03639526
C  0.32820965 0.57249718 -0.00595862
H  -0.15462610 1.56299422 0.03556418
H  1.43448117 0.63461920 0.03519909
6
MD Step 18
C  -0.33488986 -0.58060849 -0.00633235
H  0.22824427 -1.51661945 0.03769032
H  -1.42425824 -0.57630816 0.03805568
C  0.32777237 0.57155810 -0.00620926
H  -0.15195995 1.56390818 0.03706024
H  1.43278619 0.63686413 0.03663986
6
MD Step 19
C  -0.33432355 -0.57972098 -0.00658874
H  0.22827068 -1.51775516 0.03921671
H  -1.42679642 -0.57770296 0.03964029
C  0.32736938 0.57066364 -0.00644544
H  -0.14927560 1.56443053 0.03846829
H  1.43066744 0.63895506 0.03799047
6
MD Step 20
C  -0.33375126 -0.57882789 -0.00682726
H  0.22797514 -1.51879648 0.04063986
H  -1.42911855 -0.57930229 0.04112248
C  0.32700563 0.56982366 -0.00666311
H  -0.14660984 1.56453626 0.03976319
H  1.42813445 0.64085721 0.03922616
6
MD Step 21
C  -0.33317948 -0.57793631 -0.00704665
H  0.22734905 -1.51972242 0.04195321
H  -1.43117010 -0.58109932 0.04249453
C  0.32668234 0.56904405 -0.00686142
H  -0.14398302 1.56422616 0.04093917
H  1.42522424 0.64255608 0.04034200
6
MD Step 22
C  -0.33261934 -0.57705797 -0.00725086
H  0.22641734 -1.52048633 0.04318050
H  -1.43287295 -0.58305634 0.04377803
C  0.32639512 0.56832490 -0.00704444
H  -0.14138818 1.56353771 0.04202056
H  1.42201178 0.64406846 0.04136422
6
MD Step 23
C  -0.33207534 -0.57619782 -0.00743748
H  0.22517126 -1.52108349 0.04430824
H  -1.43419390 -0.58517198 0.04495849
C  0.32614540 0.56767173 -0.00721029
H  -0.13885778 1.56247760 0.04299508
H  1.41854184 0.64537501 0.04228140
6
MD Step 24
C  -0.33155595 -0.57536477 -0.00760875
H  0.22363251 -1.52148738 0.04535008
H  -1.43508121 -0.58741749 0.04604763
C  0.32592960 0.56708474 -0.00736143
H  -0.13639978 1.56108550 0.04387738
H  1.41489224 0.64648447 0.04311000
6
MD Step 25
C  -0.33106334 -0.57456136 -0.00776104
H  0.22179216 -1.52171087 0.04628542
H  -1.43552630 -0.58979772 0.04702418
C  0.32574952 0.56656904 -0.00749485
H  -0.13405808 1.55937271 0.04464842
H  1.41111181 0.64737251 0.04383170
6
MD Step 26
C  -0.33059455 -0.57378484 -0.00788599
H  0.21961756 -1.52179918 0.04706640
H  -1.43555689 -0.59234421 0.04784100
C  0.32561118 0.56613345 -0.00760324
H  -0.13190531 1.55732883 0.04526248
H  1.40722666 0.64798877 0.04440027
6
MD Step 27
C  -0.33015754 -0.57304349 -0.00798730
H  0.21714863 -1.52173327 0.04771497
H  -1.43514017 -0.59501915 0.04851809
C  0.32550853 0.56577436 -0.00769047
H  -0.12994666 1.55501799 0.04574276
H  1.40333595 0.64835359 0.04484100
6
MD Step 28
C  -0.32975677 -0.57234202 -0.00806581
H  0.21441176 -1.52151583 0.04823638
H  -1.43426922 -0.59780120 0.04905953
C  0.32543806 0.56549017 -0.00775775
H  -0.12820496 1.55249210 0.04609608
H  1.39952431 0.64847183 0.04516206
6
MD Step 29
C  -0.32939684 -0.57168523 -0.00812324
H  0.21144118 -1.52114955 0.04864084
H  -1.43294164 -0.60066416 0.04947436
C  0.32539531 0.56527771 -0.00780708
H  -0.12669879 1.54981155 0.04633422
H  1.39588162 0.64835434 0.04537666
6
MD Step 30
C  -0.32908387 -0.57107953 -0.00816380
H  0.20828781 -1.52062790 0.04895271
H  -1.43115065 -0.60356807 0.04978519
C  0.32537339 0.56513088 -0.00784265
H  -0.12543288 1.54705330 0.04648289
H  1.39250999 0.64802696 0.04551249
6
MD Step 31
C  -0.32881579 -0.57052308 -0.00818391
H  0.20496048 -1.51999345 0.04915157
H  -1.42894378 -0.60651774 0.04997218
C  0.32537304 0.56505049 -0.00786155
H  -0.12445575 1.54425108 0.04652356
H  1.38946294 0.64747168 0.04555081
6
MD Step 32
C  -0.32859249 -0.57001613 -0.00818296
H  0.20148688 -1.51927606 0.04923395
H  -1.42636105 -0.60950169 0.05003183
C  0.32539237 0.56503410 -0.00786350
H  -0.12379815 1.54145571 0.04645430
H  1.38680506 0.64668805 0.04548994
6
MD Step 33
C  -0.32841148 -0.56955658 -0.00815857
H  0.19788655 -1.51851895 0.04918642
H  -1.42346108 -0.61251883 0.04995162
C  0.32543146 0.56508060 -0.00784666
H  -0.12349897 1.53870728 0.04626324
H  1.38458357 0.64566643 0.04531740
6
MD Step 34
C  -0.32828049 -0.56915284 -0.00812011
H  0.19424621 -1.51770223 0.04906184
H  -1.42024455 -0.61550286 0.04978226
C  0.32547963 0.56517764 -0.00781952
H  -0.12352911 1.53610981 0.04600397
H  1.38290250 0.64446386 0.04508894
6
MD Step 35
C  -0.32819064 -0.56879674 -0.00806014
H  0.19055873 -1.51690319 0.04881785
H  -1.41681497 -0.61848289 0.04948404
C  0.32554275 0.56532868 -0.00777554
H  -0.12395079 1.53366875 0.04563544
H  1.38175943 0.64304285 0.04476109
6
MD Step 36
C  -0.32814167 -0.56848901 -0.00798111
H  0.18687288 -1.51614488 0.04846792
H  -1.41322667 -0.62143327 0.04907080
C  0.32561782 0.56552792 -0.00771692
H  -0.12476715 1.53144052 0.04517178
H  1.38119529 0.64142214 0.04434767
6
MD Step 37
C  -0.32813152 -0.56822878 -0.00788426
H  0.18323033 -1.51545784 0.04801855
H  -1.40954644 -0.62433606 0.04854990
C  0.32570365 0.56577085 -0.00764466
H  -0.12598398 1.52946870 0.04461992
H  1.38123068 0.63961401 0.04385472
6
MD Step 38
C  -0.32815365 -0.56801099 -0.00776674
H  0.17964895 -1.51489541 0.04745306
H  -1.40586841 -0.62719730 0.04790678
C  0.32580352 0.56605714 -0.00755606
H  -0.12762531 1.52776672 0.04396335
H  1.38184904 0.63760809 0.04326371
6
MD Step 39
C  -0.32820370 -0.56783294 -0.00762840
H  0.17616075 -1.51449401 0.04677025
H  -1.40227357 -0.63000836 0.04714192
C  0.32591869 0.56638418 -0.00745083
H  -0.12969452 1.52635577 0.04320073
H  1.38303558 0.63541011 0.04257162
6
MD Step 40
C  -0.32828211 -0.56769705 -0.00747467
H  0.17282674 -1.51425673 0.04599975
H  -1.39881259 -0.63273037 0.04628563
C  0.32604572 0.56674456 -0.00733345
H  -0.13215854 1.52527968 0.04236143
H  1.38479321 0.63305739 0.04180718
6
MD Step 41
C  -0.32838507 -0.56760167 -0.00730672
H  0.16968169 -1.51420744 0.04514727
H  -1.39555926 -0.63534924 0.04534525
C  0.32618569 0.56713535 -0.00720459
H  -0.13500239 1.52454937 0.04145058
H  1.38708783 0.63056398 0.04097400
6
MD Step 42
C  -0.32850613 -0.56754270 -0.00712302
H  0.16674267 -1.51438088 0.04420369
H  -1.39259956 -0.63786648 0.04431392
C  0.32634253 0.56755662 -0.00706256
H  -0.13822007 1.52415171 0.04045820
H  1.38985852 0.62792983 0.04006002
6
MD Step 43
C  -0.32864320 -0.56752056 -0.00692672
H  0.16404917 -1.51478104 0.04318563
H  -1.38998876 -0.64025832 0.04320963
C  0.32651610 0.56800455 -0.00690971
H  -0.14177399 1.52409064 0.03940014
H  1.39306013 0.62518153 0.03907999
6
MD Step 44
C  -0.32878716 -0.56752877 -0.00671337
H  0.16159473 -1.51544888 0.04206760
H  -1.38781784 -0.64254409 0.04200932
C  0.32671349 0.56848291 -0.00674172
H  -0.14566353 1.52431915 0.03824945
H  1.39659648 0.62230424 0.03800486
6
MD Step 45
C  -0.32893281 -0.56756472 -0.00648229
H  0.15939000 -1.51639796 0.04084528
H  -1.38614739 -0.64472218 0.04071037
C  0.32693823 0.56899228 -0.00655762
H  -0.14986178 1.52480399 0.03700057
H  1.40038666 0.61930532 0.03682773
6
MD Step 46
C  -0.32908017 -0.56763083 -0.00623778
H  0.15746922 -1.51760724 0.03954214
H  -1.38499897 -0.64676311 0.03933707
C  0.32718901 0.56952876 -0.00636091
H  -0.15430927 1.52553346 0.03567631
H  1.40437407 0.61622111 0.03557091
6
MD Step 47
C  -0.32922741 -0.56772756 -0.00598168
H  0.15584822 -1.51906318 0.03816779
H  -1.38439614 -0.64865170 0.03789994
C  0.32746666 0.57009108 -0.00615289
H  -0.15895670 1.52647624 0.03428553
H  1.40848575 0.61307490 0.03424269
6
MD Step 48
C  -0.32936807 -0.56785053 -0.00571023
H  0.15450743 -1.52077698 0.03670112
H  -1.38438073 -0.65040426 0.03637897
C  0.32777687 0.57068336 -0.00593002
H  -0.16378297 1.52756531 0.03280571
H  1.41261698 0.60985976 0.03281973
6
MD Step 49
C  -0.32950036 -0.56799962 -0.00542385
H  0.15344622 -1.52273004 0.03514435
H  -1.38495708 -0.65201363 0.03477675
C  0.32812100 0.57130580 -0.00569251
H  -0.16874107 1.52875418 0.03123838
H  1.41668832 0.60659297 0.03130338
6
MD Step 50
C  -0.32962141 -0.56817327 -0.00512099
H  0.15264893 -1.52490881 0.03348909
H  -1.38612621 -0.65348373 0.03308506
C  0.32850175 0.57196037 -0.00543895
H  -0.17379354 1.52998375 0.02957422
H  1.42061268 0.60328167 0.02968423
6
MD Step 51
C  -0.32973990 -0.56838077 -0.00481142
H  0.15215897 -1.52723095 0.03178957
H  -1.38781176 -0.65475478 0.03135742
C  0.32891074 0.57263815 -0.00517798
H  -0.17883848 1.53125800 0.02786867
H  1.42437151 0.59999671 0.02801838
6
MD Step 52
C  -0.32985535 -0.56862196 -0.00449464
H  0.15195885 -1.52966762 0.03004331
H  -1.38998291 -0.65582536 0.02959092
C  0.32934869 0.57333978 -0.00490921
H  -0.18383204 1.53252353 0.02611896
H  1.42789346 0.59675173 0.02630337
6
MD Step 53
C  -0.32996598 -0.56889496 -0.00416822
H  0.15201699 -1.53219765 0.02823723
H  -1.39260889 -0.65670557 0.02777192
C  0.32981760 0.57406751 -0.00463056
H  -0.18874226 1.53371743 0.02431147
H  1.43110232 0.59354957 0.02452590
6
MD Step 54
C  -0.33007320 -0.56920054 -0.00383253
H  0.15231463 -1.53478165 0.02637378
H  -1.39563348 -0.65739034 0.02590207
C  0.33031633 0.57482056 -0.00434249
H  -0.19352305 1.53479503 0.02244879
H  1.43394482 0.59040859 0.02268907
6
MD Step 55
C  -0.33017511 -0.56953572 -0.00348406
H  0.15280892 -1.53740058 0.02443407
H  -1.39901428 -0.65789736 0.02396160
C  0.33084684 0.57560147 -0.00404203
H  -0.19815266 1.53569317 0.02051145
H  1.43635365 0.58732511 0.02077395
6
MD Step 56
C  -0.33027376 -0.56990101 -0.00312312
H  0.15347642 -1.54001323 0.02242034
H  -1.40268091 -0.65822357 0.02195177
C  0.33140698 0.57640871 -0.00372964
H  -0.20259073 1.53637446 0.01850191
H  1.43829173 0.58431639 0.01878362
6
MD Step 57
C  -0.33037218 -0.57029740 -0.00275079
H  0.15429668 -1.54257414 0.02033931
H  -1.40655390 -0.65836246 0.01987829
C  0.33199333 0.57723949 -0.00340652
H  -0.20679590 1.53681086 0.01642728
H  1.43973551 0.58140359 0.01672579
6
MD Step 58
C  -0.33047649 -0.57072853 -0.00237129
H  0.15526579 -1.54502145 0.01821499
H  -1.41053374 -0.65829098 0.01776420
C  0.33259907 0.57808758 -0.00307665
H  -0.21071308 1.53699727 0.01431254
H  1.44068829 0.57862454 0.01462610
6
MD Step 59
C  -0.33058560 -0.57119067 -0.00198147
H  0.15633790 -1.54733710 0.01603041
H  -1.41456232 -0.65802939 0.01559171
C  0.33322383 0.57895328 -0.00273739
H  -0.21433340 1.53689240 0.01214033
H  1.44112052 0.57597467 0.01246767
6
MD Step 60
C  -0.33070302 -0.57168431 -0.00158307
H  0.15749474 -1.54947807 0.01379591
H  -1.41855503 -0.65757147 0.01337044
C  0.33386222 0.57983173 -0.00239052
H  -0.21762470 1.53648872 0.00992137
H  1.44103982 0.57347598 0.01026170
6
MD Step 61
C  -0.33083403 -0.57221142 -0.00117995
H  0.15873017 -1.55139288 0.01153348
H  -1.42241827 -0.65690050 0.01112177
C  0.33450648 0.58071556 -0.00203965
H  -0.22054772 1.53579678 0.00767837
H  1.44047488 0.57116106 0.00803129
6
MD Step 62
C  -0.33097617 -0.57276618 -0.00076829
H  0.15999558 -1.55307770 0.00922222
H  -1.42610651 -0.65604515 0.00882441
C  0.33515571 0.58160430 -0.00168147
H  -0.22311201 1.53478965 0.00538973
H  1.43941950 0.56901790 0.00575508
6
MD Step 63
C  -0.33113145 -0.57334698 -0.00034929
H  0.16127172 -1.55450467 0.00686926
H  -1.42955111 -0.65500694 0.00648519
C  0.33580399 0.58249221 -0.00131715
H  -0.22530363 1.53347529 0.00306252
H  1.43790491 0.56706146 0.00344032
6
MD Step 64
C  -0.33130394 -0.57395415 0.00007328
H  0.16255547 -1.55563589 0.00449622
H  -1.43267504 -0.65377402 0.00412563
C  0.33644264 0.58337064 -0.00095020
H  -0.22709902 1.53188279 0.00071863
H  1.43598569 0.56531997 0.00110893
6
MD Step 65
C  -0.33149628 -0.57458648 0.00049668
H  0.16383948 -1.55644459 0.00211882
H  -1.43541467 -0.65234198 0.00176146
C  0.33706380 0.58423155 -0.00058315
H  -0.22848579 1.53004139 -0.00162631
H  1.43371822 0.56381427 -0.00122354
6
MD Step 66
C  -0.33170603 -0.57523778 0.00092282
H  0.16509182 -1.55693607 -0.00027359
H  -1.43774123 -0.65073463 -0.00061781
C  0.33766386 0.58507109 -0.00021418
H  -0.22948344 1.52795960 -0.00398386
H  1.43113911 0.56253705 -0.00356886
6
MD Step 67
C  -0.33193117 -0.57590221 0.00135272
H  0.16628784 -1.55711579 -0.00268658
H  -1.43962915 -0.64897180 -0.00301746
C  0.33823831 0.58588423 0.00015772
H  -0.23011129 1.52565687 -0.00636052
H  1.42829661 0.56148468 -0.00593391
6
MD Step 68
C  -0.33217389 -0.57657809 0.00178261
H  0.16743261 -1.55696699 -0.00509857
H  -1.44103394 -0.64704675 -0.00541554
C  0.33877800 0.58666103 0.00052918
H  -0.23036584 1.52318574 -0.00873520
H  1.42527232 0.56067944 -0.00829804
6
MD Step 69
C  -0.33243379 -0.57726129 0.00221083
H  0.16852150 -1.55649041 -0.00750003
H  -1.44193227 -0.64496603 -0.00780206
C  0.33927593 0.58739343 0.00089882
H  -0.23026038 1.52059156 -0.01109932
H  1.42213993 0.56013003 -0.01065325
6
MD Step 70
C  -0.33271270 -0.57794995 0.00263301
H  0.16956815 -1.55567622 -0.00986583
H  -1.44229421 -0.64272114 -0.01015133
C  0.33972264 0.58807060 0.00126271
H  -0.22979650 1.51793996 -0.01342852
H  1.41899188 0.55985943 -0.01297588
6
MD Step 71
C  -0.33300641 -0.57863638 0.00305042
H  0.17055621 -1.55455243 -0.01220325
H  -1.44213206 -0.64033724 -0.01247011
C  0.34011444 0.58868718 0.00162231
H  -0.22901238 1.51526748 -0.01573160
H  1.41588883 0.55985662 -0.01527543
6
MD Step 72
C  -0.33330815 -0.57931057 0.00346648
H  0.17145933 -1.55316446 -0.01453212
H  -1.44148003 -0.63785280 -0.01477780
C  0.34045016 0.58924002 0.00198118
H  -0.22796210 1.51260098 -0.01803029
H  1.41287839 0.56009667 -0.01757422
6
MD Step 73
C  -0.33361840 -0.57996986 0.00387686
H  0.17229878 -1.55151667 -0.01682743
H  -1.44033571 -0.63526117 -0.01704877
C  0.34072160 0.58971844 0.00233545
H  -0.22665696 1.51001487 -0.02030074
H  1.41005191 0.56059866 -0.01984920
6
MD Step 74
C  -0.33393666 -0.58061094 0.00427787
H  0.17309476 -1.54962088 -0.01906761
H  -1.43870899 -0.63255955 -0.01926087
C  0.34092176 0.59011262 0.00268184
H  -0.22511373 1.50758110 -0.02252278
H  1.40749331 0.56137708 -0.02208091
6
MD Step 75
C  -0.33426296 -0.58123134 0.00466492
H  0.17387523 -1.54748705 -0.02122573
H  -1.43661307 -0.62973984 -0.02138655
C  0.34104347 0.59041218 0.00301612
H  -0.22334487 1.50537690 -0.02467074
H  1.40528592 0.56245083 -0.02424444
6
MD Step 76
C  -0.33458667 -0.58181838 0.00504371
H  0.17460951 -1.54518930 -0.02333542
H  -1.43413073 -0.62685524 -0.02345953
C  0.34109066 0.59061751 0.00334420
H  -0.22142423 1.50341690 -0.02678032
H  1.40344365 0.56377704 -0.02637540
6
MD Step 77
C  -0.33490245 -0.58236510 0.00541438
H  0.17530185 -1.54277089 -0.02539734
H  -1.43131911 -0.62392554 -0.02548051
C  0.34106261 0.59072401 0.00366646
H  -0.21939184 1.50174630 -0.02885375
H  1.40200453 0.56534511 -0.02847597
6
MD Step 78
C  -0.33521248 -0.58287238 0.00576942
H  0.17600356 -1.54023098 -0.02736683
H  -1.42819632 -0.62092446 -0.02740424
C  0.34095192 0.59072014 0.00397552
H  -0.21724058 1.50045205 -0.03084717
H  1.40104195 0.56718928 -0.03050273
6
MD Step 79
C  -0.33551305 -0.58333582 0.00610695
H  0.17673404 -1.53760312 -0.02923228
H  -1.42482021 -0.61785881 -0.02921911
C  0.34075781 0.59060081 0.00426950
H  -0.21499424 1.49958230 -0.03274989
H  1.40058372 0.56930982 -0.03244479
6
MD Step 80
C  -0.33578936 -0.58374054 0.00643578
H  0.17744901 -1.53498612 -0.03104646
H  -1.42131899 -0.61479997 -0.03097963
C  0.34049131 0.59037286 0.00455752
H  -0.21273836 1.49911352 -0.03461611
H  1.40057970 0.57164157 -0.03435427
6
MD Step 81
C  -0.33604299 -0.58408842 0.00674872
H  0.17820142 -1.53238080 -0.03276552
H  -1.41772701 -0.61172125 -0.03264173
C  0.34014821 0.59002786 0.00483201
H  -0.21045729 1.49911178 -0.03640190
H  1.40106495 0.57421568 -0.03618715
6
MD Step 82
C  -0.33626498 -0.58437142 0.00704888
H  0.17898175 -1.52984934 -0.03440793
H  -1.41414381 -0.60865823 -0.03422542
C  0.33973565 0.58956912 0.00509606
H  -0.20819370 1.49957162 -0.03812590
H  1.40199908 0.57699992 -0.03796014
6
MD Step 83
C  -0.33645006 -0.58458570 0.00733589
H  0.17980101 -1.52743048 -0.03597107
H  -1.41064828 -0.60562452 -0.03572938
C  0.33925806 0.58899768 0.00534904
H  -0.20596420 1.50049929 -0.03978502
H  1.40335128 0.57998235 -0.03966853
6
MD Step 84
C  -0.33659632 -0.58473116 0.00760652
H  0.18068718 -1.52514192 -0.03743439
H  -1.40730000 -0.60261497 -0.03713384
C  0.33871757 0.58831286 0.00558707
H  -0.20376232 1.50190916 -0.04135753
H  1.40509816 0.58316810 -0.04128952
6
MD Step 85
C  -0.33669733 -0.58480371 0.00786217
H  0.18163822 -1.52302643 -0.03880584
H  -1.40418440 -0.59965245 -0.03844875
C  0.33812175 0.58752018 0.00581119
H  -0.20160522 1.50377669 -0.04285004
H  1.40717802 0.58653265 -0.04282760
6
MD Step 86
C  -0.33674810 -0.58480096 0.00810339
H  0.18265541 -1.52111721 -0.04008819
H  -1.40137669 -0.59675386 -0.03967875
C  0.33747776 0.58662563 0.00602145
H  -0.19949988 1.50607264 -0.04426339
H  1.40952653 0.59005559 -0.04428169
6
MD Step 87
C  -0.33674351 -0.58472066 0.00833140
H  0.18373322 -1.51944714 -0.04128871
H  -1.39894954 -0.59393997 -0.04083338
C  0.33679393 0.58563729 0.00621869
H  -0.19745339 1.50875371 -0.04560257
H  1.41206887 0.59371086 -0.04565462
6
MD Step 88
C  -0.33668699 -0.58456925 0.00854020
H  0.18490967 -1.51799742 -0.04236855
H  -1.39692035 -0.59118454 -0.04187380
C  0.33607108 0.58455669 0.00639540
H  -0.19542260 1.51181424 -0.04682581
H  1.41477246 0.59751747 -0.04690491
6
MD Step 89
C  -0.33656887 -0.58434013 0.00873680
H  0.18613702 -1.51682712 -0.04337191
H  -1.39537968 -0.58854409 -0.04284802
C  0.33532418 0.58340053 0.00655898
H  -0.19344425 1.51515746 -0.04797448
H  1.41751869 0.60141008 -0.04807045
6
MD Step 90
C  -0.33639152 -0.58403866 0.00891791
H  0.18743019 -1.51592359 -0.04427731
H  -1.39434003 -0.58600871 -0.04373504
C  0.33455719 0.58217547 0.00670498
H  -0.19148682 1.51874607 -0.04902387
H  1.42025455 0.60538805 -0.04912655
6
MD Step 91
C  -0.33615044 -0.58366321 0.00908751
H  0.18875394 -1.51531572 -0.04511060
H  -1.39384817 -0.58361525 -0.04456338
C  0.33378200 0.58089703 0.00683760
H  -0.18956433 1.52249040 -0.04999653
H  1.42288089 0.60940246 -0.05009354
6
MD Step 92
C  -0.33585357 -0.58322430 0.00923927
H  0.19013728 -1.51495924 -0.04583031
H  -1.39386946 -0.58133276 -0.04529037
C  0.33299909 0.57957010 0.00694875
H  -0.18762274 1.52636464 -0.05084780
H  1.42536898 0.61347090 -0.05092849
6
MD Step 93
C  -0.33549776 -0.58272109 0.00937791
H  0.19153396 -1.51487732 -0.04646777
H  -1.39442847 -0.57920248 -0.04594956
C  0.33222097 0.57821238 0.00704372
H  -0.18568038 1.53026819 -0.05160572
H  1.42762130 0.61753752 -0.05165760
6
MD Step 94
C  -0.33508914 -0.58216170 0.00950068
H  0.19294400 -1.51503924 -0.04700550
H  -1.39548728 -0.57721641 -0.04652281
C  0.33145171 0.57683376 0.00711893
H  -0.18370755 1.53414874 -0.05224994
H  1.42959465 0.62159480 -0.05226151
6
MD Step 95
C  -0.33463510 -0.58155517 0.00960465
H  0.19436674 -1.51540837 -0.04742454
H  -1.39699395 -0.57536463 -0.04698998
C  0.33069486 0.57544410 0.00717055
H  -0.18167437 1.53795630 -0.05275906
H  1.43125356 0.62563636 -0.05272023
6
MD Step 96
C  -0.33413886 -0.58090604 0.00969142
H  0.19576975 -1.51597454 -0.04773637
H  -1.39891575 -0.57366690 -0.04736245
C  0.32995874 0.57405838 0.00720043
H  -0.17958282 1.54161283 -0.05314210
H  1.43253930 0.62962549 -0.05304286
6
MD Step 97
C  -0.33360347 -0.58021828 0.00976346
H  0.19711308 -1.51673064 -0.04795886
H  -1.40121652 -0.57214857 -0.04765810
C  0.32925236 0.57269249 0.00721171
H  -0.17744332 1.54503747 -0.05341467
H  1.43339475 0.63351932 -0.05324491
6
MD Step 98
C  -0.33303949 -0.57950323 0.00981707
H  0.19839733 -1.51762572 -0.04806840
H  -1.40381047 -0.57079323 -0.04785091
C  0.32857731 0.57135513 0.00719994
H  -0.17522792 1.54819522 -0.05355208
H  1.43381255 0.63731675 -0.05330389
6
MD Step 99
C  -0.33245413 -0.57876855 0.00985209
H  0.19959952 -1.51863040 -0.04806497
H  -1.40662921 -0.56960699 -0.04793930
C  0.32793867 0.57005845 0.00716512
H  -0.17293471 1.55103324 -0.05355327
H  1.43377085 0.64099396 -0.05321996
6
MD Step 100
C  -0.33185214 -0.57801922 0.00987083
H  0.20067994 -1.51973132 -0.04796590
H  -1.40961738 -0.56861208 -0.04793969
C  0.32734388 0.56881688 0.00711050
H  -0.17058180 1.55348800 -0.05343453
H  1.43323989 0.64451084 -0.05300992
6
MD Step 101
C  -0.33124174 -0.57726358 0.00987271
H  0.20161923 -1.52089507 -0.04776885
H  -1.41269760 -0.56781028 -0.04784786
C  0.32679649 0.56764079 0.00703583
H  -0.16817094 1.55552266 -0.05319332
H  1.43221901 0.64784813 -0.05267268
6
MD Step 102
C  -0.33063656 -0.57651538 0.00985241
H  0.20243165 -1.52205625 -0.04743882
H  -1.41575973 -0.56717033 -0.04762550
C  0.32629399 0.56653438 0.00693488
H  -0.16567516 1.55714023 -0.05279602
H  1.43074936 0.65102028 -0.05217752
6
MD Step 103
C  -0.33004534 -0.57578337 0.00980891
H  0.20310453 -1.52317919 -0.04696985
H  -1.41872416 -0.56668842 -0.04726453
C  0.32583806 0.56550561 0.00680680
H  -0.16309903 1.55832310 -0.05223769
H  1.42885275 0.65401454 -0.05152123
6
MD Step 104
C  -0.32946938 -0.57506859 0.00974765
H  0.20358331 -1.52427379 -0.04640074
H  -1.42155876 -0.56640318 -0.04680349
C  0.32543722 0.56456871 0.00665909
H  -0.16049360 1.55901815 -0.05155678
H  1.42651635 0.65677568 -0.05074219
6
MD Step 105
C  -0.32892358 -0.57438609 0.00966161
H  0.20390092 -1.52526728 -0.04568413
H  -1.42415077 -0.56626805 -0.04619166
C  0.32508487 0.56372266 0.00648342
H  -0.15782908 1.55926546 -0.05070931
H  1.42382108 0.65933556 -0.04979953
6
MD Step 106
C  -0.32840841 -0.57373609 0.00955638
H  0.20400805 -1.52617428 -0.04485896
H  -1.42647835 -0.56631935 -0.04546771
C  0.32478813 0.56297928 0.00628731
H  -0.15516232 1.55902923 -0.04973453
H  1.42077201 0.66164283 -0.04873264
6
MD Step 107
C  -0.32792637 -0.57312089 0.00943523
H  0.20387366 -1.52699700 -0.04394875
H  -1.42851077 -0.56657699 -0.04465451
C  0.32455081 0.56234654 0.00607555
H  -0.15253766 1.55829779 -0.04865698
H  1.41739808 0.66366367 -0.04756666
6
MD Step 108
C  -0.32748953 -0.57255265 0.00929235
H  0.20353193 -1.52767894 -0.04291411
H  -1.43016230 -0.56699846 -0.04371045
C  0.32436544 0.56182078 0.00584142
H  -0.14994087 1.55712995 -0.04744133
H  1.41379807 0.66542872 -0.04626851
6
MD Step 109
C  -0.32710601 -0.57203952 0.00912491
H  0.20300038 -1.52818712 -0.04173592
H  -1.43137523 -0.56755986 -0.04261499
C  0.32422724 0.56140031 0.00558192
H  -0.14737964 1.55557324 -0.04607201
H  1.41005797 0.66695086 -0.04482409
6
MD Step 110
C  -0.32677511 -0.57158061 0.00893745
H  0.20225072 -1.52854139 -0.04044510
H  -1.43214985 -0.56828471 -0.04139906
C  0.32413919 0.56109018 0.00530315
H  -0.14491196 1.55363437 -0.04458132
H  1.40622076 0.66819594 -0.04326590
6
MD Step 111
C  -0.32649875 -0.57117774 0.00873146
H  0.20127861 -1.52874506 -0.03905182
H  -1.43247484 -0.56917528 -0.04007250
C  0.32410020 0.56089071 0.00500745
H  -0.14257722 1.55134827 -0.04298184
H  1.40235471 0.66915260 -0.04160702
6
MD Step 112
C  -0.32627872 -0.57083263 0.00850789
H  0.20008704 -1.52880140 -0.03756230
H  -1.43234383 -0.57022888 -0.03864136
C  0.32410796 0.56080023 0.00469640
H  -0.14041216 1.54876099 -0.04128242
H  1.39853580 0.66981566 -0.03985665
6
MD Step 113
C  -0.32611831 -0.57054864 0.00826567
H  0.19869655 -1.52870338 -0.03596825
H  -1.43174531 -0.57142796 -0.03709711
C  0.32415733 0.56081349 0.00436892
H  -0.13844040 1.54593923 -0.03947834
H  1.39485630 0.67019637 -0.03801048
6
MD Step 114
C  -0.32600616 -0.57031401 0.00801644
H  0.19704584 -1.52853221 -0.03434790
H  -1.43076153 -0.57283758 -0.03551908
C  0.32425726 0.56093806 0.00403949
H  -0.13676927 1.54287096 -0.03764694
H  1.39132486 0.67022293 -0.03614490
6
MD Step 115
C  -0.32595106 -0.57013785 0.00775264
H  0.19520458 -1.52824514 -0.03264946
H  -1.42935522 -0.57439598 -0.03385513
C  0.32439470 0.56115931 0.00369918
H  -0.13538016 1.53967595 -0.03574176
H  1.38807647 0.66995367 -0.03421384
6
MD Step 116
C  -0.32594961 -0.57001676 0.00747723
H  0.19317528 -1.52787223 -0.03089227
H  -1.42756738 -0.57610940 -0.03212526
C  0.32456833 0.56147324 0.00335181
H  -0.13432231 1.53640786 -0.03378386
H  1.38517377 0.66937870 -0.03223775
6
MD Step 117
C  -0.32600844 -0.56995784 0.00718317
H  0.19102913 -1.52738084 -0.02902859
H  -1.42538132 -0.57791836 -0.03028195
C  0.32476565 0.56186418 0.00298917
H  -0.13357834 1.53318770 -0.03173012
H  1.38273960 0.66855578 -0.03017324
6
MD Step 118
C  -0.32611940 -0.56995306 0.00687652
H  0.18875398 -1.52682647 -0.02709759
H  -1.42287430 -0.57984722 -0.02836541
C  0.32498893 0.56233007 0.00261842
H  -0.13321270 1.53005130 -0.02962024
H  1.38080366 0.66745823 -0.02805884
6
MD Step 119
C  -0.32627952 -0.56999993 0.00655782
H  0.18637565 -1.52623121 -0.02510198
H  -1.42009526 -0.58188443 -0.02637924
C  0.32523465 0.56286255 0.00224022
H  -0.13325117 1.52706841 -0.02745862
H  1.37942150 0.66609640 -0.02589793
6
MD Step 120
C  -0.32649048 -0.57010089 0.00622258
H  0.18395403 -1.52558675 -0.02301161
H  -1.41706768 -0.58398606 -0.02429410
C  0.32549417 0.56344779 0.00184936
H  -0.13368349 1.52433739 -0.02521778
H  1.37866915 0.66451406 -0.02366202
6
MD Step 121
C  -0.32674375 -0.57024815 0.00587539
H  0.18149194 -1.52494437 -0.02085530
H  -1.41387975 -0.58616557 -0.02213996
C  0.32576933 0.56408165 0.00145093
H  -0.13455191 1.52189289 -0.02292664
H  1.37855090 0.66269727 -0.02137875
6
MD Step 122
C  -0.32702920 -0.57043249 0.00552187
H  0.17898660 -1.52436250 -0.01866834
H  -1.41063116 -0.58844258 -0.01995322
C  0.32606359 0.56476137 0.00105107
H  -0.13589932 1.51975589 -0.02062004
H  1.37905009 0.66062638 -0.01908164
6
MD Step 123
C  -0.32734607 -0.57065443 0.00515827
H  0.17649478 -1.52384047 -0.01642603
H  -1.40736570 -0.59077792 -0.01771009
C  0.32637092 0.56547477 0.00064541
H  -0.13770371 1.51799759 -0.01827446
H  1.38019449 0.65834171 -0.01674625
6
MD Step 124
C  -0.32768673 -0.57090770 0.00478711
H  0.17403357 -1.52341633 -0.01414358
H  -1.40416885 -0.59317149 -0.01542669
C  0.32669252 0.56621684 0.00023650
H  -0.13997511 1.51663963 -0.01590472
H  1.38195741 0.65584463 -0.01438647
6
MD Step 125
C  -0.32804839 -0.57119109 0.00440602
H  0.17164968 -1.52309661 -0.01180562
H  -1.40109633 -0.59559321 -0.01308836
C  0.32702500 0.56697826 -0.00017843
H  -0.14268624 1.51572257 -0.01349563
H  1.38432768 0.65316742 -0.01198648
6