 Entering Gaussian System, Link 0=g16
 Initial command:
 /software/gaussian/g16-c01/avx2/g16/l1.exe "/gpfs/fs2/scratch/bweight/software/many_molecule_many_mode_NAMD/src/NAMD/EXAMPLE_2_BOMD_S1/G16/DIMER/Gau-6737.inp" -scrdir="/gpfs/fs2/scratch/bweight/software/many_molecule_many_mode_NAMD/src/NAMD/EXAMPLE_2_BOMD_S1/G16/DIMER/"
 Entering Link 1 = /software/gaussian/g16-c01/avx2/g16/l1.exe PID=      6738.
  
 Copyright (c) 1988-2019, Gaussian, Inc.  All Rights Reserved.
  
 This is part of the Gaussian(R) 16 program.  It is based on
 the Gaussian(R) 09 system (copyright 2009, Gaussian, Inc.),
 the Gaussian(R) 03 system (copyright 2003, Gaussian, Inc.),
 the Gaussian(R) 98 system (copyright 1998, Gaussian, Inc.),
 the Gaussian(R) 94 system (copyright 1995, Gaussian, Inc.),
 the Gaussian 92(TM) system (copyright 1992, Gaussian, Inc.),
 the Gaussian 90(TM) system (copyright 1990, Gaussian, Inc.),
 the Gaussian 88(TM) system (copyright 1988, Gaussian, Inc.),
 the Gaussian 86(TM) system (copyright 1986, Carnegie Mellon
 University), and the Gaussian 82(TM) system (copyright 1983,
 Carnegie Mellon University). Gaussian is a federally registered
 trademark of Gaussian, Inc.
  
 This software contains proprietary and confidential information,
 including trade secrets, belonging to Gaussian, Inc.
  
 This software is provided under written license and may be
 used, copied, transmitted, or stored only in accord with that
 written license.
  
 The following legend is applicable only to US Government
 contracts under FAR:
  
                    RESTRICTED RIGHTS LEGEND
  
 Use, reproduction and disclosure by the US Government is
 subject to restrictions as set forth in subparagraphs (a)
 and (c) of the Commercial Computer Software - Restricted
 Rights clause in FAR 52.227-19.
  
 Gaussian, Inc.
 340 Quinnipiac St., Bldg. 40, Wallingford CT 06492
  
  
 ---------------------------------------------------------------
 Warning -- This program may not be used in any manner that
 competes with the business of Gaussian, Inc. or will provide
 assistance to any competitor of Gaussian, Inc.  The licensee
 of this program is prohibited from giving any competitor of
 Gaussian, Inc. access to this program.  By using this program,
 the user acknowledges that Gaussian, Inc. is engaged in the
 business of creating and licensing software in the field of
 computational chemistry and represents and warrants to the
 licensee that it is not a competitor of Gaussian, Inc. and that
 it will not use this program in any manner prohibited above.
 ---------------------------------------------------------------
  

 Cite this work as:
 Gaussian 16, Revision C.01,
 M. J. Frisch, G. W. Trucks, H. B. Schlegel, G. E. Scuseria, 
 M. A. Robb, J. R. Cheeseman, G. Scalmani, V. Barone, 
 G. A. Petersson, H. Nakatsuji, X. Li, M. Caricato, A. V. Marenich, 
 J. Bloino, B. G. Janesko, R. Gomperts, B. Mennucci, H. P. Hratchian, 
 J. V. Ortiz, A. F. Izmaylov, J. L. Sonnenberg, D. Williams-Young, 
 F. Ding, F. Lipparini, F. Egidi, J. Goings, B. Peng, A. Petrone, 
 T. Henderson, D. Ranasinghe, V. G. Zakrzewski, J. Gao, N. Rega, 
 G. Zheng, W. Liang, M. Hada, M. Ehara, K. Toyota, R. Fukuda, 
 J. Hasegawa, M. Ishida, T. Nakajima, Y. Honda, O. Kitao, H. Nakai, 
 T. Vreven, K. Throssell, J. A. Montgomery, Jr., J. E. Peralta, 
 F. Ogliaro, M. J. Bearpark, J. J. Heyd, E. N. Brothers, K. N. Kudin, 
 V. N. Staroverov, T. A. Keith, R. Kobayashi, J. Normand, 
 K. Raghavachari, A. P. Rendell, J. C. Burant, S. S. Iyengar, 
 J. Tomasi, M. Cossi, J. M. Millam, M. Klene, C. Adamo, R. Cammi, 
 J. W. Ochterski, R. L. Martin, K. Morokuma, O. Farkas, 
 J. B. Foresman, and D. J. Fox, Gaussian, Inc., Wallingford CT, 2019.
 
 ******************************************
 Gaussian 16:  ES64L-G16RevC.01  3-Jul-2019
                29-Dec-2022 
 ******************************************
 %chk=geometry.chk
 %nprocshared=1
 Will use up to    1 processors via shared memory.
 %mem=5GB
 -----------------------------------------------------------
 # BLYP/STO-3G nosymm iop(2/12=3,3/33=1) guess=only pop=full
 -----------------------------------------------------------
 1/38=1,172=1/1;
 2/12=3,15=1,17=6,18=5,40=1/2;
 3/6=3,11=2,25=1,30=1,33=1,74=402,89=1/1,2;
 4//1;
 6/7=3,28=1/1;
 99/5=2/99;
 ------------
 MD Step 1000
 ------------
 Symbolic Z-matrix:
 Charge =  0 Multiplicity = 1
 Li                    2.05785   1.82841   2.28488 
 H                     0.27939   1.85967   1.71367 
 Li                    2.03344   1.83296   2.27851 
 H                     0.46211   1.84281   1.77205 
 
                          Input orientation:                          
 ---------------------------------------------------------------------
 Center     Atomic      Atomic             Coordinates (Angstroms)
 Number     Number       Type             X           Y           Z
 ---------------------------------------------------------------------
      1          3           0        2.057847    1.828409    2.284877
      2          1           0        0.279387    1.859669    1.713671
      3          3           0        2.033438    1.832955    2.278508
      4          1           0        0.462106    1.842808    1.772052
 ---------------------------------------------------------------------
                    Distance matrix (angstroms):
                    1          2          3          4
     1  Li   0.000000
     2  H    1.868200   0.000000
     3  Li   0.025632   1.842946   0.000000
     4  H    1.676182   0.192558   1.650964   0.000000
 Symmetry turned off by external request.
 Stoichiometry    H2Li2
 Framework group  C1[X(H2Li2)]
 Deg. of freedom     6
 Full point group                 C1      NOp   1
 Rotational constants (GHZ):     2845911.4941231          92.2643793          92.2615114
 Standard basis: STO-3G (5D, 7F)
                         Coordinates in L301:                         
 ---------------------------------------------------------------------
 Center     Atomic      Atomic             Coordinates (Angstroms)
 Number     Number       Type             X           Y           Z
 ---------------------------------------------------------------------
      1          3           0        2.057847    1.828409    2.284877
      2          1           0        0.279387    1.859669    1.713671
      3          3           0        2.033438    1.832955    2.278508
      4          1           0        0.462106    1.842808    1.772052
 ---------------------------------------------------------------------
 FixB: optimizing general contractions.
 Ernie: Thresh=  0.10000D-02 Tol=  0.10000D-05 Strict=F.
 IA=     1 ShT= 0 ShC= 0 NL=   1 NS=   0.
 IA=     1 L=0 SC=0 ISt=    0 NBk=    0 NP=    0 IndPr=    0.
 IA=     1 ShT= 1 ShC= 0 NL=   1 NS=   0.
 IA=     1 L=1 SC=0 ISt=    0 NBk=    0 NP=    0 IndPr=    0.
 IA=     2 ShT= 0 ShC= 0 NL=   1 NS=   0.
 IA=     2 L=0 SC=0 ISt=    0 NBk=    0 NP=    0 IndPr=    0.
 IA=     3 ShT= 0 ShC= 0 NL=   1 NS=   0.
 IA=     3 L=0 SC=0 ISt=    0 NBk=    0 NP=    0 IndPr=    0.
 IA=     3 ShT= 1 ShC= 0 NL=   1 NS=   0.
 IA=     3 L=1 SC=0 ISt=    0 NBk=    0 NP=    0 IndPr=    0.
 IA=     4 ShT= 0 ShC= 0 NL=   1 NS=   0.
 IA=     4 L=0 SC=0 ISt=    0 NBk=    0 NP=    0 IndPr=    0.
 LdAtmC:  AtmChg=     3.000000     1.000000     3.000000     1.000000
 AtZEff=     -1.3500000     -1.0000000     -1.3500000     -1.0000000
    12 basis functions,    36 primitive gaussians,    12 cartesian basis functions
     4 alpha electrons        4 beta electrons
       nuclear repulsion energy       192.1735446935 Hartrees.
 IS=     1 IAt=     1 ISR=     1 T=0 IP=      1 IndIP=      1 IndIPD=      0 C=  8.848563D-01  0.000000D+00                             NZ=T
 IS=     1 IAt=     1 ISR=     1 T=0 IP=      2 IndIP=      2 IndIPD=      1 C=  8.557945D-01  0.000000D+00                             NZ=T
 IS=     1 IAt=     1 ISR=     1 T=0 IP=      3 IndIP=      3 IndIPD=      2 C=  2.667138D-01  0.000000D+00                             NZ=T
 IS=     2 IAt=     1 ISR=     2 T=1 IP=      1 IndIP=      4 IndIPD=      0 C= -5.075852D-02  1.262991D-01                             NZ=T
 IS=     2 IAt=     1 ISR=     2 T=1 IP=      2 IndIP=      5 IndIPD=      1 C=  6.789362D-02  7.942025D-02                             NZ=T
 IS=     2 IAt=     1 ISR=     2 T=1 IP=      3 IndIP=      6 IndIPD=      2 C=  5.124033D-02  1.258150D-02                             NZ=T
 IS=     3 IAt=     2 ISR=     1 T=0 IP=      1 IndIP=      7 IndIPD=      0 C=  2.769344D-01  0.000000D+00                             NZ=T
 IS=     3 IAt=     2 ISR=     1 T=0 IP=      2 IndIP=      8 IndIPD=      1 C=  2.678389D-01  0.000000D+00                             NZ=T
 IS=     3 IAt=     2 ISR=     1 T=0 IP=      3 IndIP=      9 IndIPD=      2 C=  8.347367D-02  0.000000D+00                             NZ=T
 IS=     4 IAt=     3 ISR=     1 T=0 IP=      1 IndIP=     10 IndIPD=      0 C=  8.848563D-01  0.000000D+00                             NZ=T
 IS=     4 IAt=     3 ISR=     1 T=0 IP=      2 IndIP=     11 IndIPD=      1 C=  8.557945D-01  0.000000D+00                             NZ=T
 IS=     4 IAt=     3 ISR=     1 T=0 IP=      3 IndIP=     12 IndIPD=      2 C=  2.667138D-01  0.000000D+00                             NZ=T
 IS=     5 IAt=     3 ISR=     2 T=1 IP=      1 IndIP=     13 IndIPD=      0 C= -5.075852D-02  1.262991D-01                             NZ=T
 IS=     5 IAt=     3 ISR=     2 T=1 IP=      2 IndIP=     14 IndIPD=      1 C=  6.789362D-02  7.942025D-02                             NZ=T
 IS=     5 IAt=     3 ISR=     2 T=1 IP=      3 IndIP=     15 IndIPD=      2 C=  5.124033D-02  1.258150D-02                             NZ=T
 IS=     6 IAt=     4 ISR=     1 T=0 IP=      1 IndIP=     16 IndIPD=      0 C=  2.769344D-01  0.000000D+00                             NZ=T
 IS=     6 IAt=     4 ISR=     1 T=0 IP=      2 IndIP=     17 IndIPD=      1 C=  2.678389D-01  0.000000D+00                             NZ=T
 IS=     6 IAt=     4 ISR=     1 T=0 IP=      3 IndIP=     18 IndIPD=      2 C=  8.347367D-02  0.000000D+00                             NZ=T
 IExCor=  402 DFT=T Ex=B Corr=LYP ExCW=0 ScaHFX=  0.000000
 ScaDFX=  1.000000  1.000000  1.000000  1.000000 ScalE2=  1.000000  1.000000
 IRadAn=      5 IRanWt=     -1 IRanGd=            0 ICorTp=0 IEmpDi=  4
 NAtoms=    4 NActive=    4 NUniq=    4 SFac= 1.00D+00 NAtFMM=   60 NAOKFM=F Big=F
 Integral buffers will be    131072 words long.
 Raffenetti 2 integral format.
 Two-electron integral symmetry is turned off.
 NPDir=0 NMtPBC=     1 NCelOv=     1 NCel=       1 NClECP=     1 NCelD=      1
         NCelK=      1 NCelE2=     1 NClLst=     1 CellRange=     0.0.
 One-electron integrals computed using PRISM.
 Entering OneElI...
 Calculate overlap and kinetic energy integrals
    NBasis =  12  MinDer = 0  MaxDer = 0
 Requested accuracy = 0.1000D-12
 PrmmSu-InSpLW:  IPartL=    0 NPrtUS=    1 NPrtUL=    1 DoSpLW=F IThBeg=    0 IThEnd=    0 NThAct=    1.
 PrSmSu:  IncTry=   512 NBBP=             21 NTPThr=   100 NPartT=    1 Incr=           1 LDynOK=F GPUOK=F.
 PrsmSu:  NPrtUS=   1 ThrOK=F IAlg=2 LenDen=           0 ISkipM=0 DoSpLW=F IThBeg=    0 IThEnd=    0.
 Prism:   IPart=     0 DynPar=F LinDyn=F Incr=           1.
 PRISM was handed   671084111 working-precision words and    21 shell-pairs
 IPart=  0 NShTot=          21 NBatch=           3 AvBLen=         7.0
 PrSmSu:  NxtVal=              2.
 *** Overlap *** 
                1             2             3             4             5 
      1  0.100000D+01
      2  0.241137D+00  0.100000D+01
      3  0.000000D+00  0.000000D+00  0.100000D+01
      4  0.000000D+00  0.000000D+00  0.000000D+00  0.100000D+01
      5  0.000000D+00  0.000000D+00  0.000000D+00  0.000000D+00  0.100000D+01
      6  0.371800D-01  0.329451D+00 -0.432589D+00  0.760349D-02 -0.138939D+00
      7  0.997211D+00  0.241152D+00 -0.165550D-01  0.308365D-02 -0.432017D-02
      8  0.241152D+00  0.999920D+00 -0.106984D-01  0.199275D-02 -0.279183D-02
      9  0.165550D-01  0.106984D-01  0.999578D+00  0.506619D-04 -0.709770D-04
     10 -0.308365D-02 -0.199275D-02  0.506619D-04  0.999841D+00  0.132206D-04
     11  0.432017D-02  0.279183D-02 -0.709770D-04  0.132206D-04  0.999831D+00
     12  0.565013D-01  0.376289D+00 -0.473940D+00  0.427652D-02 -0.152311D+00
                6             7             8             9            10 
      6  0.100000D+01
      7  0.393122D-01  0.100000D+01
      8  0.335492D+00  0.241137D+00  0.100000D+01
      9 -0.438257D+00  0.000000D+00  0.000000D+00  0.100000D+01
     10  0.667436D-02  0.000000D+00  0.000000D+00  0.000000D+00  0.100000D+01
     11 -0.141127D+00  0.000000D+00  0.000000D+00  0.000000D+00  0.000000D+00
     12  0.967581D+00  0.596462D-01  0.382558D+00 -0.478726D+00  0.300167D-02
               11            12 
     11  0.100000D+01
     12 -0.154298D+00  0.100000D+01
 *** Kinetic Energy *** 
                1             2             3             4             5 
      1  0.357679D+01
      2 -0.202374D-01  0.102163D+00
      3  0.000000D+00  0.000000D+00  0.319682D+00
      4  0.000000D+00  0.000000D+00  0.000000D+00  0.319682D+00
      5  0.000000D+00  0.000000D+00  0.000000D+00  0.000000D+00  0.319682D+00
      6 -0.110357D-01  0.259579D-01 -0.852975D-01  0.149925D-02 -0.273959D-01
      7  0.354210D+01 -0.200811D-01 -0.208588D-01  0.388529D-02 -0.544327D-02
      8 -0.200811D-01  0.102142D+00 -0.151543D-02  0.282273D-03 -0.395463D-03
      9  0.208588D-01  0.151543D-02  0.319380D+00  0.361599D-04 -0.506598D-04
     10 -0.388529D-02 -0.282273D-03  0.361599D-04  0.319568D+00  0.943623D-05
     11  0.544327D-02  0.395463D-03 -0.506598D-04  0.943623D-05  0.319561D+00
     12 -0.143499D-01  0.371740D-01 -0.111335D+00  0.100461D-02 -0.357797D-01
                6             7             8             9            10 
      6  0.760032D+00
      7 -0.114347D-01  0.357679D+01
      8  0.273114D-01 -0.202374D-01  0.102163D+00
      9 -0.885245D-01  0.000000D+00  0.000000D+00  0.319682D+00
     10  0.134817D-02  0.000000D+00  0.000000D+00  0.000000D+00  0.319682D+00
     11 -0.285065D-01  0.000000D+00  0.000000D+00  0.000000D+00  0.000000D+00
     12  0.679072D+00 -0.148073D-01  0.387938D-01 -0.114942D+00  0.720696D-03
               11            12 
     11  0.319682D+00
     12 -0.370468D-01  0.760032D+00
 Entering OneElI...
 Calculate potential energy integrals
    NBasis =  12  MinDer = 0  MaxDer = 0
 Requested accuracy = 0.1000D-12
 PrmmSu-InSpLW:  IPartL=    0 NPrtUS=    1 NPrtUL=    1 DoSpLW=F IThBeg=    0 IThEnd=    0 NThAct=    1.
 PrSmSu:  IncTry=   512 NBBP=             84 NTPThr=   100 NPartT=    1 Incr=           1 LDynOK=F GPUOK=F.
 PrsmSu:  NPrtUS=   1 ThrOK=F IAlg=2 LenDen=           0 ISkipM=0 DoSpLW=F IThBeg=    0 IThEnd=    0.
 Prism:   IPart=     0 DynPar=F LinDyn=F Incr=           1.
 PRISM was handed   671084004 working-precision words and    21 shell-pairs
 IPart=  0 NShTot=          84 NBatch=          21 AvBLen=         4.0
 PrSmSu:  NxtVal=              2.
 ***** Potential Energy ***** 
                1             2             3             4             5 
      1  0.165060D+02
      2  0.207110D+01  0.295921D+01
      3 -0.591117D-01 -0.230943D+00  0.304279D+01
      4  0.663772D-02  0.599959D-02 -0.222914D-02  0.288018D+01
      5 -0.169468D-01 -0.731604D-01  0.522224D-01 -0.709278D-03  0.289690D+01
      6  0.316347D+00  0.114325D+01 -0.151841D+01  0.260516D-01 -0.487560D+00
      7  0.164679D+02  0.207345D+01 -0.181625D+00  0.293083D-01 -0.489697D-01
      8  0.207136D+01  0.296168D+01 -0.256481D+00  0.103903D-01 -0.799525D-01
      9  0.130400D+00 -0.173697D+00  0.304388D+01 -0.226031D-02  0.519934D-01
     10 -0.287003D-01 -0.531102D-02 -0.113724D-02  0.288187D+01 -0.377226D-03
     11  0.324945D-01 -0.584471D-01  0.523844D-01 -0.743131D-03  0.289870D+01
     12  0.483539D+00  0.135297D+01 -0.172373D+01  0.172567D-01 -0.553724D+00
                6             7             8             9            10 
      6  0.406718D+01
      7  0.329741D+00  0.165147D+02
      8  0.116330D+01  0.207320D+01  0.296452D+01
      9 -0.153532D+01  0.795058D-02 -0.199289D+00  0.304948D+01
     10  0.218531D-01 -0.604781D-02 -0.922915D-03 -0.183938D-02  0.288456D+01
     11 -0.494585D+00  0.486235D-03 -0.652577D-01  0.531098D-01 -0.585555D-03
     12  0.402874D+01  0.503370D+00  0.137439D+01 -0.173707D+01  0.114422D-01
               11            12 
     11  0.290162D+01
     12 -0.560047D+00  0.426229D+01
 ****** Core Hamiltonian ****** 
                1             2             3             4             5 
      1 -0.129292D+02
      2 -0.209134D+01 -0.285705D+01
      3  0.591117D-01  0.230943D+00 -0.272310D+01
      4 -0.663772D-02 -0.599959D-02  0.222914D-02 -0.256050D+01
      5  0.169468D-01  0.731604D-01 -0.522224D-01  0.709278D-03 -0.257721D+01
      6 -0.327383D+00 -0.111729D+01  0.143311D+01 -0.245524D-01  0.460164D+00
      7 -0.129258D+02 -0.209353D+01  0.160767D+00 -0.254230D-01  0.435265D-01
      8 -0.209144D+01 -0.285953D+01  0.254966D+00 -0.101080D-01  0.795570D-01
      9 -0.109541D+00  0.175212D+00 -0.272449D+01  0.229647D-02 -0.520441D-01
     10  0.248150D-01  0.502875D-02  0.117340D-02 -0.256230D+01  0.386663D-03
     11 -0.270512D-01  0.588426D-01 -0.524351D-01  0.752567D-03 -0.257914D+01
     12 -0.497889D+00 -0.131580D+01  0.161239D+01 -0.162520D-01  0.517944D+00
                6             7             8             9            10 
      6 -0.330715D+01
      7 -0.341176D+00 -0.129379D+02
      8 -0.113599D+01 -0.209344D+01 -0.286235D+01
      9  0.144680D+01 -0.795058D-02  0.199289D+00 -0.272980D+01
     10 -0.205049D-01  0.604781D-02  0.922915D-03  0.183938D-02 -0.256488D+01
     11  0.466079D+00 -0.486235D-03  0.652577D-01 -0.531098D-01  0.585555D-03
     12 -0.334967D+01 -0.518177D+00 -0.133560D+01  0.162213D+01 -0.107215D-01
               11            12 
     11 -0.258194D+01
     12  0.523000D+00 -0.350226D+01
 SVDSVc IOpt=   1 NormSV=T IR=1
 SVDSVc V= 3.24D+00 2.35D+00 2.00D+00 2.00D+00 1.60D+00 7.76D-01 2.92D-02 2.62D-03 2.14D-04 1.50D-04
 SVDSVc V= 1.42D-04 1.12D-05
 TstOVc:  Largest diagonal error= 9.11D-12 IB=1 I=   12.
 TstOVc:  Largest same sym error= 7.25D-13 IB=1 I=   11 J=    9.
 Orthogonalized basis functions: 
                 1             2             3             4             5 
      1   0.914195D-01  0.302979D+00 -0.676574D-03 -0.308067D-03  0.394248D+00
      2   0.185658D+00  0.238281D+00 -0.419315D-03 -0.195037D-03 -0.310028D+00
      3  -0.193827D+00  0.226390D+00  0.198815D-01 -0.151937D+00 -0.217618D+00
      4   0.255360D-02 -0.218296D-02  0.497731D+00  0.474149D-01  0.288484D-02
      5  -0.622620D-01  0.730183D-01 -0.434158D-01  0.474010D+00 -0.699113D-01
      6   0.257396D+00 -0.910205D-01  0.105691D-02  0.130911D-03 -0.967384D-01
      7   0.939931D-01  0.299260D+00  0.718345D-03  0.306528D-03  0.398786D+00
      8   0.188042D+00  0.235545D+00  0.481346D-03  0.201658D-03 -0.307629D+00
      9  -0.192496D+00  0.233187D+00  0.198815D-01 -0.151937D+00 -0.212917D+00
     10   0.196820D-02 -0.329355D-02  0.497731D+00  0.474149D-01  0.225513D-02
     11  -0.620321D-01  0.748463D-01 -0.434158D-01  0.474010D+00 -0.685988D-01
     12   0.269433D+00 -0.852167D-01 -0.952676D-03 -0.113733D-03 -0.928039D-01
                 6             7             8             9            10 
      1   0.107615D+00 -0.748996D-02 -0.137998D+02 -0.110969D+01  0.578509D-02
      2  -0.360425D+00 -0.127200D+00  0.561844D+00 -0.114712D+01  0.263061D-01
      3   0.420952D+00  0.164690D+00  0.357278D+00 -0.437314D+02 -0.168273D+02
      4  -0.479278D-02  0.250098D-01 -0.104862D-01  0.184947D+02 -0.175995D+02
      5   0.135544D+00  0.573161D-01  0.112719D+00 -0.783763D+01  0.523526D+02
      6   0.603547D+00 -0.400591D+01  0.529205D-01  0.188313D+00 -0.272090D-01
      7   0.920941D-01 -0.187276D-01  0.138082D+02  0.399736D+00 -0.442901D-02
      8  -0.363992D+00 -0.155357D+00 -0.604847D+00  0.559808D+00 -0.258873D-01
      9   0.407646D+00  0.124848D+00 -0.790483D-01  0.440453D+02  0.168270D+02
     10  -0.529037D-02 -0.116861D-01 -0.316099D-01 -0.185017D+02  0.175997D+02
     11   0.131033D+00  0.363086D-01 -0.367332D-01  0.793732D+01 -0.523527D+02
     12   0.512812D+00  0.426122D+01  0.681780D-01  0.441194D+00  0.250612D-01
                11            12 
      1   0.566197D+00 -0.881896D+01
      2   0.777352D+00 -0.211349D+03
      3   0.175534D+02  0.536816D+01
      4   0.518142D+02  0.325943D+00
      5   0.230602D+02  0.194292D+01
      6   0.154607D+00 -0.784775D+00
      7  -0.370865D+00  0.887079D+01
      8  -0.510236D+00  0.211438D+03
      9  -0.177712D+02 -0.304012D+01
     10  -0.518105D+02 -0.770967D+00
     11  -0.231294D+02 -0.134022D+01
     12  -0.567719D+00  0.548394D+00
 NBasis=    12 RedAO= T EigKep=  1.12D-05  NBF=    12
 NBsUse=    12 1.00D-06 EigRej= -1.00D+00 NBFU=    12
 Precomputing XC quadrature grid using
 IXCGrd= 4 IRadAn=           5 IRanWt=          -1 IRanGd=           0 AccXCQ= 0.00D+00.
 SetAtRh:  ITypeU=  23 NETotI=       0 ICharg=  4 NETot=       0.
 StAtR1:  I=    1 I1=    1 IA=  3 C=   3.0 OKShel=TT
                                                  SS
                                                  21
 StAtR1:  I=    2 I1=    2 IA=  1 C=   1.0 OKShel=T
                                                  S
                                                  1
 StAtR1:  I=    3 I1=    3 IA=  3 C=   3.0 OKShel=TT
                                                  SS
                                                  21
 StAtR1:  I=    4 I1=    4 IA=  1 C=   1.0 OKShel=T
                                                  S
                                                  1
          I=    1 IA=  3 I1=    1 NAtG= 0 NE=   3.000 C=   0.000 Err=-3.00D+00
          I=    2 IA=  1 I1=    2 NAtG= 0 NE=   1.000 C=   0.000 Err=-1.00D+00
          I=    3 IA=  3 I1=    3 NAtG= 0 NE=   3.000 C=   0.000 Err=-3.00D+00
          I=    4 IA=  1 I1=    4 NAtG= 0 NE=   1.000 C=   0.000 Err=-1.00D+00
 Generated NRdTot=       0 NPtTot=           0 NUsed=           0 NTot=          32
 NSgBfM=    12    12    12    12    12 MxSgAt=     4 MxSgA2=     4.
 IGWInf( 1) =          32 (NGWInf)
 IGWInf( 2) =           4 (NAtomA)
 IGWInf( 3) =           5 (IRadAn)
 IGWInf( 4) =          -1 (IRanWt)
 IGWInf( 5) =           0 (IRanGd)
 IGWInf( 6) =           2 (IRType)
 IGWInf( 7) =           0 (NRdTot)
 IGWInf( 8) =           0 (NGWTot)
 IGWInf( 9) =       84704 (LGWBtD)
 IGWInf(10) =           0 (NAtBtD)
 IGWInf(11) =           0 (NIRBtD)
 IGWInf(12) =           0 (NRRBtD)
 IGWInf(13) =           1 (NClRep)
 IGWInf(14) =           0 (ICntr3)
 IGWInf(15) =           0 (IPFlag)
 IGWInf(16) =           0 (IGet)  
 IGWInf(17) =           0         
 IGWInf(18) =          12         
 IGWInf(19) =          12         
 IGWInf(20) =          12         
 IGWInf(21) =          12         
 IGWInf(22) =          12         
 IGWInf(23) =           4         
 IGWInf(24) =           4         
 IGWInf(25) =           0         
 IGWInf(26) =           0         
 IGWInf(27) =           0         
 IGWInf(28) =           0         
 IGWInf(29) =           0         
 IGWInf(30) =           0         
 IGWInf(31) =           0         
 IGWInf(32) =           0         
 IAtBtD: 
              1            2            3            4
 ExpMin= 4.81D-02 ExpMax= 1.61D+01 ExpMxC= 1.61D+01 IAcc=3 IRadAn=         5 AccDes= 0.00D+00
 Harris functional with IExCor=  402 and IRadAn=       5 diagonalized for initial guess.
 HarFok:  IExCor=  402 AccDes= 0.00D+00 IRadAn=         5 IDoV= 1 UseB2=F ITyADJ=14
 ICtDFT=  3500011 ScaDFX=  1.000000  1.000000  1.000000  1.000000
 FoFCou: FMM=F IPFlag=           0 FMFlag=      100000 FMFlg1=           0
         NFxFlg=           0 DoJE=T BraDBF=F KetDBF=T FulRan=T
         wScrn=  0.000000 ICntrl=       500 IOpCl=  0 I1Cent=   200000004 NGrid=           0
         NMat0=    1 NMatS0=      1 NMatT0=    0 NMatD0=    1 NMtDS0=    0 NMtDT0=    0
 Symmetry not used in FoFCou.

 **********************************************************************

            Population analysis using the SCF Density.

 **********************************************************************

 Alpha  occ. eigenvalues --   -6.71963  -0.89881  -0.34445  -0.26803
 Alpha virt. eigenvalues --   -0.19393  -0.19286   0.12433   0.18696   0.20422
 Alpha virt. eigenvalues --    0.26169   1.18367   6.86282
     Molecular Orbital Coefficients:
                           1         2         3         4         5
                           O         O         O         O         V
     Eigenvalues --    -6.71963  -0.89881  -0.34445  -0.26803  -0.19393
   1 1   Li 1S         -0.57689   0.16406   0.10995  -1.38182  -0.00011
   2        2S          2.35916 -16.44716 -11.46778  72.41582   0.01633
   3        2PX        -9.19683   5.17120 -13.32087  -3.62367   0.56537
   4        2PY         0.89661   0.67460   2.35923   0.55865   0.63268
   5        2PZ        -2.67687   1.90420  -3.51720  -0.98880  -1.73601
   6 2   H  1S         -0.01335  -0.35003  -0.18108  -0.45183  -0.00373
   7 3   Li 1S         -0.57092  -0.08860  -0.39283   1.32413   0.00008
   8        2S         -2.36584  16.58602  12.30293 -72.19498  -0.01659
   9        2PX         9.22841  -5.12406  13.61768   1.99699  -0.86041
  10        2PY        -0.89235  -0.71010  -2.41015  -0.21408  -0.95989
  11        2PZ         2.68855  -1.90098   3.59624   0.57944   2.63277
  12 4   H  1S          0.13427  -0.81075   0.04800   0.02179   0.00270
                           6         7         8         9        10
                           V         V         V         V         V
     Eigenvalues --    -0.19286   0.12433   0.18696   0.20422   0.26169
   1 1   Li 1S         -0.10006  -0.97194  -0.22591  -0.00599   0.39938
   2        2S          5.20161 132.94692  22.29075   0.58429 -49.39314
   3        2PX        -0.63511  11.56422 -21.27596 -17.04669  36.78094
   4        2PY         1.84990   1.05682  45.76614 -17.83765  29.75376
   5        2PZ         0.46609   4.00207   8.65224  52.16416  22.29881
   6 2   H  1S         -0.10778  -0.19755   0.00416   0.01160  -0.27466
   7 3   Li 1S          0.09018   1.09843  -0.03400   0.00497  -0.05131
   8        2S         -5.17950-132.83305 -22.82434  -0.58547  50.18359
   9        2PX         0.43840 -12.44109  21.25562  17.02932 -36.72119
  10        2PY        -2.75767  -0.86958 -45.69515  17.82545 -29.81568
  11        2PZ        -0.86202  -4.22327  -8.63469 -52.12738 -22.30080
  12 4   H  1S         -0.00260   0.38547   0.31137  -0.01037  -0.46652
                          11        12
                           V         V
     Eigenvalues --     1.18367   6.86282
   1 1   Li 1S         -0.90407  16.30231
   2        2S         32.23518 131.68682
   3        2PX         0.23169  -0.72395
   4        2PY         5.13027   0.68091
   5        2PZ         1.20701  -0.06610
   6 2   H  1S          4.04654   0.56025
   7 3   Li 1S          0.91640 -16.29785
   8        2S        -31.94127-131.64998
   9        2PX        -0.82699  -1.02608
  10        2PY        -5.08922  -0.36358
  11        2PZ        -1.38084  -0.39284
  12 4   H  1S         -4.22462  -0.58615
     Density Matrix:
                           1         2         3         4         5
   1 1   Li 1S          4.56246
   2        2S       -210.77124**********
   3        2PX        19.39318-432.79658 603.79917
   4        2PY        -1.83826   8.83951 -76.41774  14.27412
   5        2PZ         5.67260-137.80903 169.80196 -19.93164  48.28008
   6 2   H  1S          1.10942 -49.83480   4.72440  -1.85547   0.90579
   7 3   Li 1S         -3.11616 201.00698  10.45423  -1.51743   2.86384
   8        2S        210.39781********** 410.50512  -4.47677 132.06208
   9        2PX       -14.85333 188.99294-600.01099  76.12098-168.66246
  10        2PY         0.85824  43.42078  74.83172 -14.16967  19.45043
  11        2PZ        -4.53629  76.65588-169.12247  19.87250 -48.07678
  12 4   H  1S         -0.47061  29.35778 -12.29168  -0.60223  -4.18729
                           6         7         8         9        10
   6 2   H  1S          0.71928
   7 3   Li 1S         -0.97702   4.48289
   8        2S         49.23574-201.09526**********
   9        2PX        -3.39578 -15.03971-166.91153 601.69761
  10        2PY         1.58727   2.47138 -47.72631 -75.68927  14.31041
  11        2PZ        -0.56706  -4.02396 -70.95697 169.36275 -19.68159
  12 4   H  1S          0.52691   0.01034 -29.49493  12.18132   0.67106
                          11        12
  11        2PZ        48.22144
  12 4   H  1S          4.17495   1.35624
    Full Mulliken population analysis:
                           1         2         3         4         5
   1 1   Li 1S          4.56246
   2        2S        -50.82465**********
   3        2PX         0.00000   0.00000 603.79917
   4        2PY         0.00000   0.00000   0.00000  14.27412
   5        2PZ         0.00000   0.00000   0.00000   0.00000  48.28008
   6 2   H  1S          0.04125 -16.41812  -2.04372  -0.01411  -0.12585
   7 3   Li 1S         -3.10747  48.47331  -0.17307  -0.00468  -0.01237
   8        2S         50.73793**********  -4.39175  -0.00892  -0.36870
   9        2PX        -0.24590   2.02192-599.75780   0.00386   0.01197
  10        2PY        -0.00265  -0.08653   0.00379 -14.16741   0.00026
  11        2PZ        -0.01960   0.21401   0.01200   0.00026 -48.06868
  12 4   H  1S         -0.02659  11.04700   5.82552  -0.00258   0.63777
                           6         7         8         9        10
   6 2   H  1S          0.71928
   7 3   Li 1S         -0.03841   4.48289
   8        2S         16.51821 -48.49142**********
   9        2PX         1.48822   0.00000   0.00000 601.69761
  10        2PY         0.01059   0.00000   0.00000   0.00000  14.31041
  11        2PZ         0.08003   0.00000   0.00000   0.00000   0.00000
  12 4   H  1S          0.50982   0.00062 -11.28352  -5.83152   0.00201
                          11        12
  11        2PZ        48.22144
  12 4   H  1S         -0.64419   1.35624
     Gross orbital populations:
                           1
   1 1   Li 1S          1.11478
   2        2S          3.56070
   3        2PX         3.27415
   4        2PY         0.08055
   5        2PZ         0.35448
   6 2   H  1S          0.72720
   7 3   Li 1S          1.12939
   8        2S         -3.08597
   9        2PX        -0.61164
  10        2PY         0.07048
  11        2PZ        -0.20472
  12 4   H  1S          1.59060
          Condensed to atoms (all electrons):
               1          2          3          4
     1  Li*********** -18.560555***********  17.481128
     2  H  -18.560555   0.719277  18.058649   0.509824
     3  Li***********  18.058649*********** -17.756597
     4  H   17.481128   0.509824 -17.756597   1.356241
 Mulliken charges:
               1
     1  Li  -5.384664
     2  H    0.272804
     3  Li   5.702457
     4  H   -0.590597
 Sum of Mulliken charges =  -0.00000
 Mulliken charges with hydrogens summed into heavy atoms:
               1
     1  Li  -5.384664
     3  Li   5.384664
 N-N= 1.921735446935D+02 E-N=-6.080753840767D+01  KE= 1.354250858674D+01
 Orbital energies and kinetic energies (alpha):
                                 1                 2
   1         O                -6.719633          4.271150
   2         O                -0.898807          0.907994
   3         O                -0.344446          0.415135
   4         O                -0.268033          1.176974
   5         V                -0.193931          0.320353
   6         V                -0.192865          0.332886
   7         V                 0.124333          0.954082
   8         V                 0.186963          0.809833
   9         V                 0.204223          0.713167
  10         V                 0.261689          1.108110
  11         V                 1.183674          2.895900
  12         V                 6.862817         16.875770
 Total kinetic energy from orbitals= 1.354250858674D+01

 This type of calculation cannot be archived.


 TO DRY ONE'S EYES AND LAUGH AT A FALL
 AND BAFFLED, GET UP AND BEGIN AGAIN.
           R. BROWNING
 Job cpu time:       0 days  0 hours  0 minutes  1.4 seconds.
 Elapsed time:       0 days  0 hours  0 minutes  1.7 seconds.
 File lengths (MBytes):  RWF=    272 Int=      0 D2E=      0 Chk=     32 Scr=     32
 Normal termination of Gaussian 16 at Thu Dec 29 05:03:00 2022.
