 Entering Gaussian System, Link 0=g16
 Initial command:
 /software/gaussian/g16-c01/avx2/g16/l1.exe "/gpfs/fs2/scratch/bweight/software/many_molecule_many_mode_NAMD/src/NAMD/EXAMPLE_2_BOMD_S1/G16/DIMER/Gau-3405.inp" -scrdir="/gpfs/fs2/scratch/bweight/software/many_molecule_many_mode_NAMD/src/NAMD/EXAMPLE_2_BOMD_S1/G16/DIMER/"
 Entering Link 1 = /software/gaussian/g16-c01/avx2/g16/l1.exe PID=      3406.
  
 Copyright (c) 1988-2019, Gaussian, Inc.  All Rights Reserved.
  
 This is part of the Gaussian(R) 16 program.  It is based on
 the Gaussian(R) 09 system (copyright 2009, Gaussian, Inc.),
 the Gaussian(R) 03 system (copyright 2003, Gaussian, Inc.),
 the Gaussian(R) 98 system (copyright 1998, Gaussian, Inc.),
 the Gaussian(R) 94 system (copyright 1995, Gaussian, Inc.),
 the Gaussian 92(TM) system (copyright 1992, Gaussian, Inc.),
 the Gaussian 90(TM) system (copyright 1990, Gaussian, Inc.),
 the Gaussian 88(TM) system (copyright 1988, Gaussian, Inc.),
 the Gaussian 86(TM) system (copyright 1986, Carnegie Mellon
 University), and the Gaussian 82(TM) system (copyright 1983,
 Carnegie Mellon University). Gaussian is a federally registered
 trademark of Gaussian, Inc.
  
 This software contains proprietary and confidential information,
 including trade secrets, belonging to Gaussian, Inc.
  
 This software is provided under written license and may be
 used, copied, transmitted, or stored only in accord with that
 written license.
  
 The following legend is applicable only to US Government
 contracts under FAR:
  
                    RESTRICTED RIGHTS LEGEND
  
 Use, reproduction and disclosure by the US Government is
 subject to restrictions as set forth in subparagraphs (a)
 and (c) of the Commercial Computer Software - Restricted
 Rights clause in FAR 52.227-19.
  
 Gaussian, Inc.
 340 Quinnipiac St., Bldg. 40, Wallingford CT 06492
  
  
 ---------------------------------------------------------------
 Warning -- This program may not be used in any manner that
 competes with the business of Gaussian, Inc. or will provide
 assistance to any competitor of Gaussian, Inc.  The licensee
 of this program is prohibited from giving any competitor of
 Gaussian, Inc. access to this program.  By using this program,
 the user acknowledges that Gaussian, Inc. is engaged in the
 business of creating and licensing software in the field of
 computational chemistry and represents and warrants to the
 licensee that it is not a competitor of Gaussian, Inc. and that
 it will not use this program in any manner prohibited above.
 ---------------------------------------------------------------
  

 Cite this work as:
 Gaussian 16, Revision C.01,
 M. J. Frisch, G. W. Trucks, H. B. Schlegel, G. E. Scuseria, 
 M. A. Robb, J. R. Cheeseman, G. Scalmani, V. Barone, 
 G. A. Petersson, H. Nakatsuji, X. Li, M. Caricato, A. V. Marenich, 
 J. Bloino, B. G. Janesko, R. Gomperts, B. Mennucci, H. P. Hratchian, 
 J. V. Ortiz, A. F. Izmaylov, J. L. Sonnenberg, D. Williams-Young, 
 F. Ding, F. Lipparini, F. Egidi, J. Goings, B. Peng, A. Petrone, 
 T. Henderson, D. Ranasinghe, V. G. Zakrzewski, J. Gao, N. Rega, 
 G. Zheng, W. Liang, M. Hada, M. Ehara, K. Toyota, R. Fukuda, 
 J. Hasegawa, M. Ishida, T. Nakajima, Y. Honda, O. Kitao, H. Nakai, 
 T. Vreven, K. Throssell, J. A. Montgomery, Jr., J. E. Peralta, 
 F. Ogliaro, M. J. Bearpark, J. J. Heyd, E. N. Brothers, K. N. Kudin, 
 V. N. Staroverov, T. A. Keith, R. Kobayashi, J. Normand, 
 K. Raghavachari, A. P. Rendell, J. C. Burant, S. S. Iyengar, 
 J. Tomasi, M. Cossi, J. M. Millam, M. Klene, C. Adamo, R. Cammi, 
 J. W. Ochterski, R. L. Martin, K. Morokuma, O. Farkas, 
 J. B. Foresman, and D. J. Fox, Gaussian, Inc., Wallingford CT, 2019.
 
 ******************************************
 Gaussian 16:  ES64L-G16RevC.01  3-Jul-2019
                29-Dec-2022 
 ******************************************
 %chk=geometry.chk
 %nprocshared=1
 Will use up to    1 processors via shared memory.
 %mem=5GB
 -----------------------------------------------------------
 # BLYP/STO-3G nosymm iop(2/12=3,3/33=1) guess=only pop=full
 -----------------------------------------------------------
 1/38=1,172=1/1;
 2/12=3,15=1,17=6,18=5,40=1/2;
 3/6=3,11=2,25=1,30=1,33=1,74=402,89=1/1,2;
 4//1;
 6/7=3,28=1/1;
 99/5=2/99;
 ---------
 MD Step 5
 ---------
 Symbolic Z-matrix:
 Charge =  0 Multiplicity = 1
 Li                    0.0061    0.0061    0.02436 
 H                     0.01584   0.01584   2.88999 
 Li                    0.00764   0.00764   0.03627 
 H                     0.0197    0.0197    2.82237 
 
                          Input orientation:                          
 ---------------------------------------------------------------------
 Center     Atomic      Atomic             Coordinates (Angstroms)
 Number     Number       Type             X           Y           Z
 ---------------------------------------------------------------------
      1          3           0        0.006104    0.006103    0.024362
      2          1           0        0.015842    0.015842    2.889986
      3          3           0        0.007644    0.007643    0.036272
      4          1           0        0.019701    0.019700    2.822370
 ---------------------------------------------------------------------
                    Distance matrix (angstroms):
                    1          2          3          4
     1  Li   0.000000
     2  H    2.865657   0.000000
     3  Li   0.012108   2.853738   0.000000
     4  H    2.798074   0.067837   2.786149   0.000000
 Symmetry turned off by external request.
 Stoichiometry    H2Li2
 Framework group  CS[SG(H2Li2)]
 Deg. of freedom     5
 Full point group                 CS      NOp   2
 Rotational constants (GHZ):    15420177.4665997          35.8998847          35.8998011
 Standard basis: STO-3G (5D, 7F)
                         Coordinates in L301:                         
 ---------------------------------------------------------------------
 Center     Atomic      Atomic             Coordinates (Angstroms)
 Number     Number       Type             X           Y           Z
 ---------------------------------------------------------------------
      1          3           0        0.006104    0.006103    0.024362
      2          1           0        0.015842    0.015842    2.889986
      3          3           0        0.007644    0.007643    0.036272
      4          1           0        0.019701    0.019700    2.822370
 ---------------------------------------------------------------------
 FixB: optimizing general contractions.
 Ernie: Thresh=  0.10000D-02 Tol=  0.10000D-05 Strict=F.
 IA=     1 ShT= 0 ShC= 0 NL=   1 NS=   0.
 IA=     1 L=0 SC=0 ISt=    0 NBk=    0 NP=    0 IndPr=    0.
 IA=     1 ShT= 1 ShC= 0 NL=   1 NS=   0.
 IA=     1 L=1 SC=0 ISt=    0 NBk=    0 NP=    0 IndPr=    0.
 IA=     2 ShT= 0 ShC= 0 NL=   1 NS=   0.
 IA=     2 L=0 SC=0 ISt=    0 NBk=    0 NP=    0 IndPr=    0.
 IA=     3 ShT= 0 ShC= 0 NL=   1 NS=   0.
 IA=     3 L=0 SC=0 ISt=    0 NBk=    0 NP=    0 IndPr=    0.
 IA=     3 ShT= 1 ShC= 0 NL=   1 NS=   0.
 IA=     3 L=1 SC=0 ISt=    0 NBk=    0 NP=    0 IndPr=    0.
 IA=     4 ShT= 0 ShC= 0 NL=   1 NS=   0.
 IA=     4 L=0 SC=0 ISt=    0 NBk=    0 NP=    0 IndPr=    0.
 LdAtmC:  AtmChg=     3.000000     1.000000     3.000000     1.000000
 AtZEff=     -1.3500000     -1.0000000     -1.3500000     -1.0000000
    12 basis functions,    36 primitive gaussians,    12 cartesian basis functions
     4 alpha electrons        4 beta electrons
       nuclear repulsion energy       403.3963433851 Hartrees.
 IS=     1 IAt=     1 ISR=     1 T=0 IP=      1 IndIP=      1 IndIPD=      0 C=  8.848563D-01  0.000000D+00                             NZ=T
 IS=     1 IAt=     1 ISR=     1 T=0 IP=      2 IndIP=      2 IndIPD=      1 C=  8.557945D-01  0.000000D+00                             NZ=T
 IS=     1 IAt=     1 ISR=     1 T=0 IP=      3 IndIP=      3 IndIPD=      2 C=  2.667138D-01  0.000000D+00                             NZ=T
 IS=     2 IAt=     1 ISR=     2 T=1 IP=      1 IndIP=      4 IndIPD=      0 C= -5.075852D-02  1.262991D-01                             NZ=T
 IS=     2 IAt=     1 ISR=     2 T=1 IP=      2 IndIP=      5 IndIPD=      1 C=  6.789362D-02  7.942025D-02                             NZ=T
 IS=     2 IAt=     1 ISR=     2 T=1 IP=      3 IndIP=      6 IndIPD=      2 C=  5.124033D-02  1.258150D-02                             NZ=T
 IS=     3 IAt=     2 ISR=     1 T=0 IP=      1 IndIP=      7 IndIPD=      0 C=  2.769344D-01  0.000000D+00                             NZ=T
 IS=     3 IAt=     2 ISR=     1 T=0 IP=      2 IndIP=      8 IndIPD=      1 C=  2.678389D-01  0.000000D+00                             NZ=T
 IS=     3 IAt=     2 ISR=     1 T=0 IP=      3 IndIP=      9 IndIPD=      2 C=  8.347367D-02  0.000000D+00                             NZ=T
 IS=     4 IAt=     3 ISR=     1 T=0 IP=      1 IndIP=     10 IndIPD=      0 C=  8.848563D-01  0.000000D+00                             NZ=T
 IS=     4 IAt=     3 ISR=     1 T=0 IP=      2 IndIP=     11 IndIPD=      1 C=  8.557945D-01  0.000000D+00                             NZ=T
 IS=     4 IAt=     3 ISR=     1 T=0 IP=      3 IndIP=     12 IndIPD=      2 C=  2.667138D-01  0.000000D+00                             NZ=T
 IS=     5 IAt=     3 ISR=     2 T=1 IP=      1 IndIP=     13 IndIPD=      0 C= -5.075852D-02  1.262991D-01                             NZ=T
 IS=     5 IAt=     3 ISR=     2 T=1 IP=      2 IndIP=     14 IndIPD=      1 C=  6.789362D-02  7.942025D-02                             NZ=T
 IS=     5 IAt=     3 ISR=     2 T=1 IP=      3 IndIP=     15 IndIPD=      2 C=  5.124033D-02  1.258150D-02                             NZ=T
 IS=     6 IAt=     4 ISR=     1 T=0 IP=      1 IndIP=     16 IndIPD=      0 C=  2.769344D-01  0.000000D+00                             NZ=T
 IS=     6 IAt=     4 ISR=     1 T=0 IP=      2 IndIP=     17 IndIPD=      1 C=  2.678389D-01  0.000000D+00                             NZ=T
 IS=     6 IAt=     4 ISR=     1 T=0 IP=      3 IndIP=     18 IndIPD=      2 C=  8.347367D-02  0.000000D+00                             NZ=T
 IExCor=  402 DFT=T Ex=B Corr=LYP ExCW=0 ScaHFX=  0.000000
 ScaDFX=  1.000000  1.000000  1.000000  1.000000 ScalE2=  1.000000  1.000000
 IRadAn=      5 IRanWt=     -1 IRanGd=            0 ICorTp=0 IEmpDi=  4
 NAtoms=    4 NActive=    4 NUniq=    4 SFac= 1.00D+00 NAtFMM=   60 NAOKFM=F Big=F
 Integral buffers will be    131072 words long.
 Raffenetti 2 integral format.
 Two-electron integral symmetry is turned off.
 NPDir=0 NMtPBC=     1 NCelOv=     1 NCel=       1 NClECP=     1 NCelD=      1
         NCelK=      1 NCelE2=     1 NClLst=     1 CellRange=     0.0.
 One-electron integrals computed using PRISM.
 Entering OneElI...
 Calculate overlap and kinetic energy integrals
    NBasis =  12  MinDer = 0  MaxDer = 0
 Requested accuracy = 0.1000D-12
 PrmmSu-InSpLW:  IPartL=    0 NPrtUS=    1 NPrtUL=    1 DoSpLW=F IThBeg=    0 IThEnd=    0 NThAct=    1.
 PrSmSu:  IncTry=   512 NBBP=             21 NTPThr=   100 NPartT=    1 Incr=           1 LDynOK=F GPUOK=F.
 PrsmSu:  NPrtUS=   1 ThrOK=F IAlg=2 LenDen=           0 ISkipM=0 DoSpLW=F IThBeg=    0 IThEnd=    0.
 Prism:   IPart=     0 DynPar=F LinDyn=F Incr=           1.
 PRISM was handed   671084223 working-precision words and    21 shell-pairs
 IPart=  0 NShTot=          21 NBatch=           4 AvBLen=         5.3
 PrSmSu:  NxtVal=              2.
 *** Overlap *** 
                1             2             3             4             5 
      1  0.100000D+01
      2  0.241137D+00  0.100000D+01
      3  0.000000D+00  0.000000D+00  0.100000D+01
      4  0.000000D+00  0.000000D+00  0.000000D+00  0.100000D+01
      5  0.000000D+00  0.000000D+00  0.000000D+00  0.000000D+00  0.100000D+01
      6  0.293531D-02  0.140754D+00  0.738104D-03  0.738119D-03  0.217188D+00
      7  0.999376D+00  0.241140D+00  0.104545D-02  0.104534D-02  0.808185D-02
      8  0.241140D+00  0.999982D+00  0.675325D-03  0.675255D-03  0.522062D-02
      9 -0.104545D-02 -0.675325D-03  0.999965D+00 -0.108374D-05 -0.837878D-05
     10 -0.104534D-02 -0.675255D-03 -0.108374D-05  0.999965D+00 -0.837791D-05
     11 -0.808185D-02 -0.522062D-02 -0.837878D-05 -0.837791D-05  0.999902D+00
     12  0.357942D-02  0.150154D+00  0.112057D-02  0.112058D-02  0.230586D+00
                6             7             8             9            10 
      6  0.100000D+01
      7  0.304079D-02  0.100000D+01
      8  0.142377D+00  0.241137D+00  0.100000D+01
      9  0.630600D-03  0.000000D+00  0.000000D+00  0.100000D+01
     10  0.630627D-03  0.000000D+00  0.000000D+00  0.000000D+00  0.100000D+01
     11  0.219510D+00  0.000000D+00  0.000000D+00  0.000000D+00  0.000000D+00
     12  0.995855D+00  0.370527D-02  0.151862D+00  0.100834D-02  0.100836D-02
               11            12 
     11  0.100000D+01
     12  0.233011D+00  0.100000D+01
 *** Kinetic Energy *** 
                1             2             3             4             5 
      1  0.357679D+01
      2 -0.202374D-01  0.102163D+00
      3  0.000000D+00  0.000000D+00  0.319682D+00
      4  0.000000D+00  0.000000D+00  0.000000D+00  0.319682D+00
      5  0.000000D+00  0.000000D+00  0.000000D+00  0.000000D+00  0.319682D+00
      6 -0.237723D-02 -0.109496D-02  0.291656D-04  0.291661D-04  0.858198D-02
      7  0.356900D+01 -0.202025D-01  0.131789D-02  0.131775D-02  0.101880D-01
      8 -0.202025D-01  0.102158D+00  0.956262D-04  0.956163D-04  0.739242D-03
      9 -0.131789D-02 -0.956262D-04  0.319657D+00  0.000000D+00 -0.598166D-05
     10 -0.131775D-02 -0.956163D-04  0.000000D+00  0.319657D+00 -0.598104D-05
     11 -0.101880D-01 -0.739242D-03 -0.598166D-05 -0.598104D-05  0.319611D+00
     12 -0.271377D-02 -0.438777D-03  0.533412D-04  0.533415D-04  0.109763D-01
                6             7             8             9            10 
      6  0.760032D+00
      7 -0.243449D-02  0.357679D+01
      8 -0.986627D-03 -0.202374D-01  0.102163D+00
      9  0.257964D-04  0.000000D+00  0.000000D+00  0.319682D+00
     10  0.257975D-04  0.000000D+00  0.000000D+00  0.000000D+00  0.319682D+00
     11  0.897966D-02  0.000000D+00  0.000000D+00  0.000000D+00  0.000000D+00
     12  0.749107D+00 -0.277613D-02 -0.312025D-03  0.494852D-04  0.494862D-04
               11            12 
     11  0.319682D+00
     12  0.114352D-01  0.760032D+00
 Entering OneElI...
 Calculate potential energy integrals
    NBasis =  12  MinDer = 0  MaxDer = 0
 Requested accuracy = 0.1000D-12
 PrmmSu-InSpLW:  IPartL=    0 NPrtUS=    1 NPrtUL=    1 DoSpLW=F IThBeg=    0 IThEnd=    0 NThAct=    1.
 PrSmSu:  IncTry=   512 NBBP=             84 NTPThr=   100 NPartT=    1 Incr=           1 LDynOK=F GPUOK=F.
 PrsmSu:  NPrtUS=   1 ThrOK=F IAlg=2 LenDen=           0 ISkipM=0 DoSpLW=F IThBeg=    0 IThEnd=    0.
 Prism:   IPart=     0 DynPar=F LinDyn=F Incr=           1.
 PRISM was handed   671084088 working-precision words and    21 shell-pairs
 IPart=  0 NShTot=          84 NBatch=          21 AvBLen=         4.0
 PrSmSu:  NxtVal=              2.
 ***** Potential Energy ***** 
                1             2             3             4             5 
      1  0.163263D+02
      2  0.201837D+01  0.278400D+01
      3  0.219099D-02  0.157995D-02  0.273794D+01
      4  0.219077D-02  0.157984D-02  0.383197D-05  0.273794D+01
      5  0.268948D-01  0.127709D+00  0.347460D-03  0.347462D-03  0.281730D+01
      6  0.213771D-01  0.376367D+00  0.207694D-02  0.207698D-02  0.584768D+00
      7  0.163178D+02  0.201880D+01  0.964427D-02  0.964327D-02  0.846112D-01
      8  0.201842D+01  0.278469D+01  0.298014D-02  0.297988D-02  0.139045D+00
      9 -0.956299D-02 -0.205118D-02  0.273844D+01 -0.333863D-05  0.177381D-03
     10 -0.956199D-02 -0.205091D-02 -0.333854D-05  0.273844D+01  0.177401D-03
     11 -0.639440D-01  0.100443D+00  0.370495D-03  0.370494D-03  0.281778D+01
     12  0.263703D-01  0.403176D+00  0.297811D-02  0.297812D-02  0.623231D+00
                6             7             8             9            10 
      6  0.355016D+01
      7  0.219554D-01  0.163279D+02
      8  0.380673D+00  0.201875D+01  0.278546D+01
      9  0.175171D-02 -0.211081D-02 -0.651073D-03  0.273914D+01
     10  0.175178D-02 -0.211058D-02 -0.650948D-03  0.351667D-05  0.273914D+01
     11  0.591018D+00 -0.623351D-02  0.111787D+00  0.308386D-03  0.308393D-03
     12  0.354950D+01  0.270659D-01  0.407718D+00  0.263207D-02  0.263213D-02
               11            12 
     11  0.281928D+01
     12  0.629757D+00  0.357704D+01
 ****** Core Hamiltonian ****** 
                1             2             3             4             5 
      1 -0.127495D+02
      2 -0.203861D+01 -0.268183D+01
      3 -0.219099D-02 -0.157995D-02 -0.241826D+01
      4 -0.219077D-02 -0.157984D-02 -0.383197D-05 -0.241826D+01
      5 -0.268948D-01 -0.127709D+00 -0.347460D-03 -0.347462D-03 -0.249761D+01
      6 -0.237543D-01 -0.377462D+00 -0.204778D-02 -0.204781D-02 -0.576186D+00
      7 -0.127488D+02 -0.203901D+01 -0.832638D-02 -0.832552D-02 -0.744232D-01
      8 -0.203863D+01 -0.268253D+01 -0.288451D-02 -0.288427D-02 -0.138306D+00
      9  0.824510D-02  0.195556D-02 -0.241878D+01  0.256494D-05 -0.183363D-03
     10  0.824424D-02  0.195530D-02  0.256485D-05 -0.241878D+01 -0.183382D-03
     11  0.537560D-01 -0.101182D+00 -0.376476D-03 -0.376475D-03 -0.249817D+01
     12 -0.290841D-01 -0.403615D+00 -0.292476D-02 -0.292478D-02 -0.612255D+00
                6             7             8             9            10 
      6 -0.279013D+01
      7 -0.243899D-01 -0.127511D+02
      8 -0.381659D+00 -0.203899D+01 -0.268330D+01
      9 -0.172591D-02  0.211081D-02  0.651073D-03 -0.241946D+01
     10 -0.172598D-02  0.211058D-02  0.650948D-03 -0.351667D-05 -0.241946D+01
     11 -0.582038D+00  0.623351D-02 -0.111787D+00 -0.308386D-03 -0.308393D-03
     12 -0.280040D+01 -0.298420D-01 -0.408030D+00 -0.258258D-02 -0.258264D-02
               11            12 
     11 -0.249960D+01
     12 -0.618322D+00 -0.281700D+01
 SVDSVc IOpt=   1 NormSV=T IR=1
 SVDSVc V= 2.64D+00 2.34D+00 2.00D+00 2.00D+00 1.65D+00 1.37D+00 4.00D-03 5.89D-04 5.50D-05 3.35D-05
 SVDSVc V= 3.32D-05 2.54D-06
 TstOVc:  Largest diagonal error= 4.10D-11 IB=1 I=   12.
 TstOVc:  Largest same sym error= 1.44D-11 IB=1 I=   12 J=   11.
 Orthogonalized basis functions: 
                 1             2             3             4             5 
      1   0.196818D+00 -0.251308D+00  0.000000D+00 -0.360992D-03  0.301482D+00
      2   0.257454D+00 -0.178958D+00  0.000000D+00 -0.231747D-03 -0.214255D+00
      3   0.803921D-03  0.919600D-03 -0.353534D+00  0.353573D+00  0.133891D-02
      4   0.803918D-03  0.919638D-03  0.353579D+00  0.353528D+00  0.133892D-02
      5   0.168127D+00  0.275187D+00  0.000000D+00 -0.274792D-02  0.323135D+00
      6   0.235053D+00  0.206462D+00  0.000000D+00 -0.115980D-03 -0.248842D+00
      7   0.197865D+00 -0.249371D+00  0.000000D+00  0.356234D-03  0.304598D+00
      8   0.258416D+00 -0.177426D+00  0.000000D+00  0.231422D-03 -0.212719D+00
      9   0.495671D-03  0.122706D-02 -0.353534D+00  0.353573D+00  0.116302D-02
     10   0.495700D-03  0.122706D-02  0.353579D+00  0.353528D+00  0.116305D-02
     11   0.166323D+00  0.278136D+00  0.000000D+00 -0.274789D-02  0.320811D+00
     12   0.238709D+00  0.208070D+00  0.000000D+00  0.116327D-03 -0.245795D+00
                 6             7             8             9            10 
      1  -0.270403D+00  0.171313D+00 -0.291085D+02  0.103581D+01  0.000000D+00
      2   0.357294D+00 -0.821439D-01  0.122668D+01  0.153104D+01  0.000000D+00
      3   0.857321D-03 -0.218628D-02 -0.141798D-01 -0.156585D+02 -0.864196D+02
      4   0.857345D-03 -0.218693D-02 -0.141786D-01 -0.156568D+02  0.864293D+02
      5   0.235902D+00 -0.299552D+00 -0.331500D+00 -0.926751D+02 -0.913683D-04
      6  -0.336472D+00 -0.111503D+02 -0.386182D+00  0.167177D+01 -0.359774D-05
      7  -0.267668D+00 -0.148552D+00  0.291126D+02 -0.347780D+00  0.000000D+00
      8   0.358287D+00 -0.357529D-01 -0.123865D+01 -0.113071D+01  0.000000D+00
      9   0.968696D-03 -0.196612D-02 -0.156377D-01  0.156610D+02  0.864196D+02
     10   0.968709D-03 -0.196542D-02 -0.156358D-01  0.156594D+02 -0.864293D+02
     11   0.235198D+00  0.138096D+00  0.844751D-01  0.927795D+02  0.913574D-04
     12  -0.327117D+00  0.112035D+02  0.441895D+00 -0.197112D+01  0.344555D-05
                11            12 
      1   0.253811D+00 -0.187185D+02
      2   0.781222D+00 -0.443480D+03
      3   0.844373D+02  0.713205D+00
      4   0.844278D+02  0.713119D+00
      5  -0.284745D+02 -0.798755D+01
      6   0.507693D+00  0.680740D+00
      7  -0.209968D+00  0.187570D+02
      8  -0.737222D+00  0.443545D+03
      9  -0.844362D+02 -0.103183D+01
     10  -0.844267D+02 -0.103171D+01
     11   0.285103D+02  0.558199D+01
     12  -0.607432D+00 -0.906146D+00
 NBasis=    12 RedAO= T EigKep=  2.54D-06  NBF=    12
 NBsUse=    12 1.00D-06 EigRej= -1.00D+00 NBFU=    12
 Precomputing XC quadrature grid using
 IXCGrd= 4 IRadAn=           5 IRanWt=          -1 IRanGd=           0 AccXCQ= 0.00D+00.
 SetAtRh:  ITypeU=  23 NETotI=       0 ICharg=  4 NETot=       0.
 StAtR1:  I=    1 I1=    1 IA=  3 C=   3.0 OKShel=TT
                                                  SS
                                                  21
 StAtR1:  I=    2 I1=    2 IA=  1 C=   1.0 OKShel=T
                                                  S
                                                  1
 StAtR1:  I=    3 I1=    3 IA=  3 C=   3.0 OKShel=TT
                                                  SS
                                                  21
 StAtR1:  I=    4 I1=    4 IA=  1 C=   1.0 OKShel=T
                                                  S
                                                  1
          I=    1 IA=  3 I1=    1 NAtG= 0 NE=   3.000 C=   0.000 Err=-3.00D+00
          I=    2 IA=  1 I1=    2 NAtG= 0 NE=   1.000 C=   0.000 Err=-1.00D+00
          I=    3 IA=  3 I1=    3 NAtG= 0 NE=   3.000 C=   0.000 Err=-3.00D+00
          I=    4 IA=  1 I1=    4 NAtG= 0 NE=   1.000 C=   0.000 Err=-1.00D+00
 Generated NRdTot=       0 NPtTot=           0 NUsed=           0 NTot=          32
 NSgBfM=    12    12    12    12    12 MxSgAt=     4 MxSgA2=     4.
 IGWInf( 1) =          32 (NGWInf)
 IGWInf( 2) =           4 (NAtomA)
 IGWInf( 3) =           5 (IRadAn)
 IGWInf( 4) =          -1 (IRanWt)
 IGWInf( 5) =           0 (IRanGd)
 IGWInf( 6) =           2 (IRType)
 IGWInf( 7) =           0 (NRdTot)
 IGWInf( 8) =           0 (NGWTot)
 IGWInf( 9) =       85308 (LGWBtD)
 IGWInf(10) =           0 (NAtBtD)
 IGWInf(11) =           0 (NIRBtD)
 IGWInf(12) =           0 (NRRBtD)
 IGWInf(13) =           1 (NClRep)
 IGWInf(14) =           0 (ICntr3)
 IGWInf(15) =           0 (IPFlag)
 IGWInf(16) =           0 (IGet)  
 IGWInf(17) =           0         
 IGWInf(18) =          12         
 IGWInf(19) =          12         
 IGWInf(20) =          12         
 IGWInf(21) =          12         
 IGWInf(22) =          12         
 IGWInf(23) =           4         
 IGWInf(24) =           4         
 IGWInf(25) =           0         
 IGWInf(26) =           0         
 IGWInf(27) =           0         
 IGWInf(28) =           0         
 IGWInf(29) =           0         
 IGWInf(30) =           0         
 IGWInf(31) =           0         
 IGWInf(32) =           0         
 IAtBtD: 
              1            2            3            4
 ExpMin= 4.81D-02 ExpMax= 1.61D+01 ExpMxC= 1.61D+01 IAcc=3 IRadAn=         5 AccDes= 0.00D+00
 Harris functional with IExCor=  402 and IRadAn=       5 diagonalized for initial guess.
 HarFok:  IExCor=  402 AccDes= 0.00D+00 IRadAn=         5 IDoV= 1 UseB2=F ITyADJ=14
 ICtDFT=  3500011 ScaDFX=  1.000000  1.000000  1.000000  1.000000
 FoFCou: FMM=F IPFlag=           0 FMFlag=      100000 FMFlg1=           0
         NFxFlg=           0 DoJE=T BraDBF=F KetDBF=T FulRan=T
         wScrn=  0.000000 ICntrl=       500 IOpCl=  0 I1Cent=   200000004 NGrid=           0
         NMat0=    1 NMatS0=      1 NMatT0=    0 NMatD0=    1 NMtDS0=    0 NMtDT0=    0
 Symmetry not used in FoFCou.

 **********************************************************************

            Population analysis using the SCF Density.

 **********************************************************************

 Alpha  occ. eigenvalues --   -6.71816  -0.82442  -0.35106  -0.27983
 Alpha virt. eigenvalues --   -0.18386  -0.18382   0.14242   0.16950   0.23126
 Alpha virt. eigenvalues --    0.23317   1.38641   6.90310
     Molecular Orbital Coefficients:
                           1         2         3         4         5
                           O         O         O         O         V
     Eigenvalues --    -6.71816  -0.82442  -0.35106  -0.27983  -0.18386
   1 1   Li 1S         -0.53129   0.01147   0.13125  -2.73041  -0.00248
   2        2S          3.22406 -15.60973   0.25733 143.72646   0.55421
   3        2PX         1.97280   0.60018  -3.65256   0.20238  -0.00440
   4        2PY         1.97260   0.60012  -3.65218   0.20236  -0.00440
   5        2PZ        17.60607  -5.91323 -27.76822   0.04219   0.15729
   6 2   H  1S         -0.18158  -0.37815   0.13382  -0.15616   0.03816
   7 3   Li 1S         -0.60156   0.01362   0.14742   2.73272   0.00188
   8        2S         -3.18387  15.66851  -1.12364-143.71237  -0.55654
   9        2PX        -1.97070  -0.61162   3.65384   0.00389   0.70065
  10        2PY        -1.97050  -0.61155   3.65346   0.00389   0.70058
  11        2PZ       -17.60131   5.89642  27.77304   1.57193  -0.33621
  12 4   H  1S          0.22504  -0.66349  -0.08439   0.05971  -0.00835
                           6         7         8         9        10
                           V         V         V         V         V
     Eigenvalues --    -0.18382   0.14242   0.16950   0.23126   0.23317
   1 1   Li 1S          0.00000  -2.10134   1.55037  -0.00000  -0.18566
   2        2S          0.00000 265.33760-165.77119   0.00000  20.28494
   3        2PX        -0.01712  -4.56731 -16.62706 -86.42070 -83.98951
   4        2PY         0.01713  -4.56684 -16.62534  86.42963 -83.98083
   5        2PZ         0.00000 -41.75462 -72.90481   0.00000  29.07515
   6 2   H  1S         -0.00000   0.08561  -0.87651   0.00000   0.28501
   7 3   Li 1S         -0.00000   2.30469  -1.19266   0.00000   0.15185
   8        2S         -0.00000-265.01606 166.36350  -0.00000 -20.34384
   9        2PX        -0.68994   4.69466  16.54356  86.41795  83.99761
  10        2PY         0.69002   4.69418  16.54184 -86.42688  83.98894
  11        2PZ        -0.00000  42.72835  72.31872  -0.00000 -29.00760
  12 4   H  1S          0.00000  -0.02879   0.55656  -0.00000  -0.19124
                          11        12
                           V         V
     Eigenvalues --     1.38641   6.90310
   1 1   Li 1S          0.24846 -34.41588
   2        2S        -38.03427-275.72641
   3        2PX         2.48741   0.16515
   4        2PY         2.48704   0.16513
   5        2PZ       -20.84382  -3.04913
   6 2   H  1S         11.27747   0.09550
   7 3   Li 1S         -0.15672  34.42663
   8        2S         38.26683 275.74792
   9        2PX        -2.50675  -0.39189
  10        2PY        -2.50637  -0.39184
  11        2PZ        20.85508   1.31517
  12 4   H  1S        -11.40952  -0.17458
     Density Matrix:
                           1         2         3         4         5
   1 1   Li 1S         15.50949
   2        2S       -788.57965**********
   3        2PX        -4.14647  50.27884  35.26856
   4        2PY        -4.14604  50.27360  35.26490  35.26124
   5        2PZ       -26.36319 295.96940 265.23544 265.208032232.03163
   6 2   H  1S          1.07217 -34.18610  -2.21113  -2.21089  -9.36669
   7 3   Li 1S        -14.24464 781.29897  -2.32799  -2.32775 -29.30003
   8        2S        788.23394********** -43.71546 -43.71090-247.13610
   9        2PX         3.01790   9.38600 -35.19987 -35.19622-265.08015
  10        2PY         3.01758   9.38505 -35.19622 -35.19257-265.05276
  11        2PZ        17.54460 168.57207-264.61866-264.59133**********
  12 4   H  1S         -0.60256  39.28502   0.73217   0.73210  20.46290
                           6         7         8         9        10
   6 2   H  1S          0.43652
   7 3   Li 1S         -0.60588  15.70307
   8        2S         33.89079-781.52415**********
   9        2PX         2.15493   3.45290 -15.94696  35.21656
  10        2PY         2.15470   3.45255 -15.94533  35.21290  35.20925
  11        2PZ         8.87483  38.11713-217.36983 265.12969 265.10230
  12 4   H  1S          0.37883   0.01262 -39.19703  -0.69164  -0.69157
                          11        12
  11        2PZ      2236.77274
  12 4   H  1S        -20.24652   1.00310
    Full Mulliken population analysis:
                           1         2         3         4         5
   1 1   Li 1S         15.50949
   2        2S       -190.15539**********
   3        2PX         0.00000   0.00000  35.26856
   4        2PY         0.00000   0.00000   0.00000  35.26124
   5        2PZ         0.00000   0.00000   0.00000   0.000002232.03163
   6 2   H  1S          0.00315  -4.81183  -0.00163  -0.00163  -2.03433
   7 3   Li 1S        -14.23575 188.40251  -0.00243  -0.00243  -0.23680
   8        2S        190.07482**********  -0.02952  -0.02952  -1.29020
   9        2PX        -0.00316  -0.00634 -35.19866   0.00004   0.00222
  10        2PY        -0.00315  -0.00634   0.00004 -35.19135   0.00222
  11        2PZ        -0.14179  -0.88005   0.00222   0.00222**********
  12 4   H  1S         -0.00216   5.89879   0.00082   0.00082   4.71845
                           6         7         8         9        10
   6 2   H  1S          0.43652
   7 3   Li 1S         -0.00184  15.70307
   8        2S          4.82528-188.45406**********
   9        2PX         0.00136   0.00000   0.00000  35.21656
  10        2PY         0.00136   0.00000   0.00000   0.00000  35.20925
  11        2PZ         1.94811   0.00000   0.00000   0.00000   0.00000
  12 4   H  1S          0.37726   0.00005  -5.95252  -0.00070  -0.00070
                          11        12
  11        2PZ      2236.77274
  12 4   H  1S         -4.71766   1.00310
     Gross orbital populations:
                           1
   1 1   Li 1S          1.04604
   2        2S          1.21454
   3        2PX         0.03939
   4        2PY         0.03938
   5        2PZ         1.61597
   6 2   H  1S          0.74178
   7 3   Li 1S          1.17232
   8        2S         -0.62622
   9        2PX         0.01133
  10        2PY         0.01133
  11        2PZ         1.40858
  12 4   H  1S          1.32556
          Condensed to atoms (all electrons):
               1          2          3          4
     1  Li***********  -6.846274***********  10.616727
     2  H   -6.846274   0.436520   6.774271   0.377260
     3  Li***********   6.774271*********** -10.671529
     4  H   10.616727   0.377260 -10.671529   1.003099
 Mulliken charges:
               1
     1  Li  -0.955335
     2  H    0.258223
     3  Li   1.022668
     4  H   -0.325556
 Sum of Mulliken charges =  -0.00000
 Mulliken charges with hydrogens summed into heavy atoms:
               1
     1  Li  -0.955335
     3  Li   0.955335
 N-N= 4.033963433851D+02 E-N=-5.728502748853D+01  KE= 1.273408884536D+01
 Orbital energies and kinetic energies (alpha):
                                 1                 2
   1         O                -6.718162          4.217450
   2         O                -0.824421          0.816394
   3         O                -0.351064          0.355072
   4         O                -0.279830          0.978129
   5         V                -0.183864          0.320740
   6         V                -0.183824          0.319681
   7         V                 0.142423          1.023758
   8         V                 0.169496          1.062893
   9         V                 0.231256          0.713923
  10         V                 0.233168          0.728910
  11         V                 1.386407          2.838468
  12         V                 6.903101         16.880141
 Total kinetic energy from orbitals= 1.273408884536D+01

 This type of calculation cannot be archived.


 Sometimes the fool who rushes in gets the job done.
                                    -- Al Bernstein
 Job cpu time:       0 days  0 hours  0 minutes  1.5 seconds.
 Elapsed time:       0 days  0 hours  0 minutes  1.9 seconds.
 File lengths (MBytes):  RWF=    272 Int=      0 D2E=      0 Chk=     32 Scr=     32
 Normal termination of Gaussian 16 at Thu Dec 29 00:17:33 2022.
