 Entering Gaussian System, Link 0=g16
 Initial command:
 /software/gaussian/g16-c01/avx2/g16/l1.exe "/gpfs/fs2/scratch/bweight/software/many_molecule_many_mode_NAMD/src/NAMD/TEST_NVT/TRAJ/traj-85/G16/GS_NEW/Gau-21098.inp" -scrdir="/gpfs/fs2/scratch/bweight/software/many_molecule_many_mode_NAMD/src/NAMD/TEST_NVT/TRAJ/traj-85/G16/GS_NEW/"
 Entering Link 1 = /software/gaussian/g16-c01/avx2/g16/l1.exe PID=     21099.
  
 Copyright (c) 1988-2019, Gaussian, Inc.  All Rights Reserved.
  
 This is part of the Gaussian(R) 16 program.  It is based on
 the Gaussian(R) 09 system (copyright 2009, Gaussian, Inc.),
 the Gaussian(R) 03 system (copyright 2003, Gaussian, Inc.),
 the Gaussian(R) 98 system (copyright 1998, Gaussian, Inc.),
 the Gaussian(R) 94 system (copyright 1995, Gaussian, Inc.),
 the Gaussian 92(TM) system (copyright 1992, Gaussian, Inc.),
 the Gaussian 90(TM) system (copyright 1990, Gaussian, Inc.),
 the Gaussian 88(TM) system (copyright 1988, Gaussian, Inc.),
 the Gaussian 86(TM) system (copyright 1986, Carnegie Mellon
 University), and the Gaussian 82(TM) system (copyright 1983,
 Carnegie Mellon University). Gaussian is a federally registered
 trademark of Gaussian, Inc.
  
 This software contains proprietary and confidential information,
 including trade secrets, belonging to Gaussian, Inc.
  
 This software is provided under written license and may be
 used, copied, transmitted, or stored only in accord with that
 written license.
  
 The following legend is applicable only to US Government
 contracts under FAR:
  
                    RESTRICTED RIGHTS LEGEND
  
 Use, reproduction and disclosure by the US Government is
 subject to restrictions as set forth in subparagraphs (a)
 and (c) of the Commercial Computer Software - Restricted
 Rights clause in FAR 52.227-19.
  
 Gaussian, Inc.
 340 Quinnipiac St., Bldg. 40, Wallingford CT 06492
  
  
 ---------------------------------------------------------------
 Warning -- This program may not be used in any manner that
 competes with the business of Gaussian, Inc. or will provide
 assistance to any competitor of Gaussian, Inc.  The licensee
 of this program is prohibited from giving any competitor of
 Gaussian, Inc. access to this program.  By using this program,
 the user acknowledges that Gaussian, Inc. is engaged in the
 business of creating and licensing software in the field of
 computational chemistry and represents and warrants to the
 licensee that it is not a competitor of Gaussian, Inc. and that
 it will not use this program in any manner prohibited above.
 ---------------------------------------------------------------
  

 Cite this work as:
 Gaussian 16, Revision C.01,
 M. J. Frisch, G. W. Trucks, H. B. Schlegel, G. E. Scuseria, 
 M. A. Robb, J. R. Cheeseman, G. Scalmani, V. Barone, 
 G. A. Petersson, H. Nakatsuji, X. Li, M. Caricato, A. V. Marenich, 
 J. Bloino, B. G. Janesko, R. Gomperts, B. Mennucci, H. P. Hratchian, 
 J. V. Ortiz, A. F. Izmaylov, J. L. Sonnenberg, D. Williams-Young, 
 F. Ding, F. Lipparini, F. Egidi, J. Goings, B. Peng, A. Petrone, 
 T. Henderson, D. Ranasinghe, V. G. Zakrzewski, J. Gao, N. Rega, 
 G. Zheng, W. Liang, M. Hada, M. Ehara, K. Toyota, R. Fukuda, 
 J. Hasegawa, M. Ishida, T. Nakajima, Y. Honda, O. Kitao, H. Nakai, 
 T. Vreven, K. Throssell, J. A. Montgomery, Jr., J. E. Peralta, 
 F. Ogliaro, M. J. Bearpark, J. J. Heyd, E. N. Brothers, K. N. Kudin, 
 V. N. Staroverov, T. A. Keith, R. Kobayashi, J. Normand, 
 K. Raghavachari, A. P. Rendell, J. C. Burant, S. S. Iyengar, 
 J. Tomasi, M. Cossi, J. M. Millam, M. Klene, C. Adamo, R. Cammi, 
 J. W. Ochterski, R. L. Martin, K. Morokuma, O. Farkas, 
 J. B. Foresman, and D. J. Fox, Gaussian, Inc., Wallingford CT, 2019.
 
 ******************************************
 Gaussian 16:  ES64L-G16RevC.01  3-Jul-2019
                11-Jan-2023 
 ******************************************
 %oldchk=../GS_OLD/geometry.chk
 %chk=geometry.chk
 %nprocshared=4
 Will use up to    4 processors via shared memory.
 %mem=5GB
 Copying data from "../GS_OLD/geometry.chk" to current chk file "geometry.chk"
 IOpt=  2 FromEx=T IUOpen= 4 IOptOp= 5 NList=   0 IFRang= 0 IUIn= 4 IUOut= 2.
 -------------------------------------------------------
 # WB97XD/6-311G SCF=XQC FORCE nosym pop=full guess=read
 -------------------------------------------------------
 1/10=7,30=1,38=1/1,3;
 2/12=2,15=1,17=6,18=5,40=1/2;
 3/5=4,6=6,11=2,25=1,30=1,71=1,74=-58,116=-2/1,2,3;
 4/5=1/1;
 5/5=2,8=3,13=1,38=6/2,8;
 6/7=3,28=1/1;
 7/29=1,30=1/1,2,3,16;
 1/10=7,30=1/3;
 99//99;
 ------------
 MD Step 1000
 ------------
 Symbolic Z-matrix:
 Charge =  0 Multiplicity = 1
 C                    -0.33685  -0.58289   0.00801 
 H                     0.22336  -1.52177  -0.02835 
 H                    -1.42228  -0.58447  -0.03024 
 C                     0.33301   0.57736   0.00561 
 H                    -0.15469   1.56536  -0.03316 
 H                     1.43875   0.64615  -0.03118 
 

 GradGradGradGradGradGradGradGradGradGradGradGradGradGradGradGradGradGrad
 Berny optimization.
 Initialization pass.
 Trust Radius=3.00D-01 FncErr=1.00D-07 GrdErr=1.00D-07 EigMax=2.50D+02 EigMin=1.00D-04
 Number of steps in this run=      2 maximum allowed number of steps=      2.
 GradGradGradGradGradGradGradGradGradGradGradGradGradGradGradGradGradGrad

                          Input orientation:                          
 ---------------------------------------------------------------------
 Center     Atomic      Atomic             Coordinates (Angstroms)
 Number     Number       Type             X           Y           Z
 ---------------------------------------------------------------------
      1          6           0       -0.336855   -0.582895    0.008007
      2          1           0        0.223363   -1.521767   -0.028348
      3          1           0       -1.422284   -0.584468   -0.030240
      4          6           0        0.333011    0.577361    0.005612
      5          1           0       -0.154694    1.565360   -0.033158
      6          1           0        1.438755    0.646154   -0.031183
 ---------------------------------------------------------------------
                    Distance matrix (angstroms):
                    1          2          3          4          5
     1  C    0.000000
     2  H    1.093913   0.000000
     3  H    1.086104   1.893855   0.000000
     4  C    1.339746   2.102264   2.105277   0.000000
     5  H    2.156356   3.110193   2.495706   1.102498   0.000000
     6  H    2.159835   2.485371   3.114479   1.108493   1.839571
                    6
     6  H    0.000000
 Symmetry turned off by external request.
 Stoichiometry    C2H4
 Framework group  C1[X(C2H4)]
 Deg. of freedom    12
 Full point group                 C1      NOp   1
 Rotational constants (GHZ):         143.6740000          29.6763797          24.6076097
 Standard basis: 6-311G (5D, 7F)
    38 basis functions,    72 primitive gaussians,    38 cartesian basis functions
     8 alpha electrons        8 beta electrons
       nuclear repulsion energy        33.0824270911 Hartrees.
 NAtoms=    6 NActive=    6 NUniq=    6 SFac= 1.00D+00 NAtFMM=   60 NAOKFM=F Big=F
 Integral buffers will be    131072 words long.
 Raffenetti 2 integral format.
 Two-electron integral symmetry is turned off.
 Nuclear repulsion after empirical dispersion term =       33.0815853122 Hartrees.
 One-electron integrals computed using PRISM.
 NBasis=    38 RedAO= T EigKep=  6.46D-03  NBF=    38
 NBsUse=    38 1.00D-06 EigRej= -1.00D+00 NBFU=    38
 Initial guess from the checkpoint file:  "geometry.chk"
 B after Tr=    -0.000208   -0.000262   -0.000476
         Rot=    1.000000    0.000001    0.000001    0.000006 Ang=   0.00 deg.
 Keep R1 ints in memory in canonical form, NReq=4036876.
 Requested convergence on RMS density matrix=1.00D-08 within  32 cycles.
 Requested convergence on MAX density matrix=1.00D-06.
 Requested convergence on             energy=1.00D-06.
 No special actions if energy rises.
 SCF Done:  E(RwB97XD) =  -78.5556348940     A.U. after    8 cycles
            NFock=  8  Conv=0.67D-08     -V/T= 2.0051
 QCSCF skips out because SCF is already converged.

 **********************************************************************

            Population analysis using the SCF Density.

 **********************************************************************

 Alpha  occ. eigenvalues --  -10.28979 -10.28790  -0.86373  -0.67287  -0.56002
 Alpha  occ. eigenvalues --   -0.50895  -0.43721  -0.35653
 Alpha virt. eigenvalues --    0.07936   0.14113   0.16523   0.17063   0.24090
 Alpha virt. eigenvalues --    0.37233   0.39433   0.39962   0.46507   0.48938
 Alpha virt. eigenvalues --    0.49405   0.59100   0.66617   0.69241   0.77325
 Alpha virt. eigenvalues --    0.77567   0.84084   0.95074   2.23097   2.29117
 Alpha virt. eigenvalues --    2.33286   2.40674   2.67113   2.81747   2.87852
 Alpha virt. eigenvalues --    2.95180   3.14007   3.32074  23.35365  23.70519
     Molecular Orbital Coefficients:
                           1         2         3         4         5
                           O         O         O         O         O
     Eigenvalues --   -10.28979 -10.28790  -0.86373  -0.67287  -0.56002
   1 1   C  1S          0.13323   0.54742  -0.08831   0.06689  -0.00012
   2        2S          0.10985   0.45049  -0.13958   0.10712  -0.00019
   3        2PX         0.00016  -0.00002   0.02614   0.03536   0.13810
   4        2PY         0.00028  -0.00003   0.04586   0.05917  -0.07477
   5        2PZ        -0.00000  -0.00001  -0.00157   0.00230   0.00028
   6        3S          0.00261   0.01440   0.37444  -0.29233   0.00052
   7        3PX        -0.00058   0.00047   0.03479   0.05682   0.21644
   8        3PY        -0.00099   0.00082   0.06059   0.09582  -0.11783
   9        3PZ        -0.00002  -0.00004  -0.00263   0.00409   0.00042
  10        4S          0.00239  -0.01483   0.19191  -0.22555  -0.00020
  11        4PX         0.00139  -0.00165   0.00496   0.02312   0.11182
  12        4PY         0.00239  -0.00280   0.00858   0.03946  -0.06138
  13        4PZ         0.00001   0.00010  -0.00091   0.00204   0.00021
  14 2   H  1S         -0.00005  -0.00006   0.05316  -0.08745   0.10345
  15        2S         -0.00029   0.00013   0.05423  -0.10530   0.13067
  16        3S          0.00092   0.00165  -0.00174  -0.01508   0.04211
  17 3   H  1S         -0.00005  -0.00007   0.05380  -0.09009  -0.10606
  18        2S         -0.00029   0.00010   0.05467  -0.10778  -0.13319
  19        3S          0.00095   0.00166  -0.00183  -0.01566  -0.04288
  20 4   C  1S          0.54739  -0.13342  -0.08683  -0.06839  -0.00002
  21        2S          0.45056  -0.10961  -0.13710  -0.10967  -0.00001
  22        2PX        -0.00002  -0.00017  -0.02706   0.03834   0.11767
  23        2PY        -0.00004  -0.00029  -0.04634   0.06770  -0.07275
  24        2PZ        -0.00000   0.00000  -0.00122  -0.00243   0.00028
  25        3S          0.01384  -0.00428   0.36725   0.29975  -0.00004
  26        3PX        -0.00016   0.00074  -0.03383   0.06191   0.18404
  27        3PY        -0.00026   0.00127  -0.05801   0.10891  -0.11290
  28        3PZ        -0.00004  -0.00000  -0.00211  -0.00435   0.00042
  29        4S         -0.01175   0.00906   0.18884   0.23728  -0.00093
  30        4PX         0.00075  -0.00194  -0.00523   0.02672   0.10107
  31        4PY         0.00128  -0.00340  -0.00917   0.04651  -0.06179
  32        4PZ         0.00008  -0.00002  -0.00087  -0.00223   0.00022
  33 5   H  1S         -0.00007  -0.00004   0.04993   0.09414  -0.08891
  34        2S         -0.00004  -0.00031   0.05104   0.11188  -0.11170
  35        3S          0.00181   0.00004  -0.00102   0.01671  -0.03570
  36 6   H  1S         -0.00006  -0.00004   0.04933   0.09266   0.08537
  37        2S         -0.00004  -0.00032   0.05064   0.11064   0.10770
  38        3S          0.00178   0.00003  -0.00106   0.01637   0.03476
                           6         7         8         9        10
                           O         O         O         V         V
     Eigenvalues --    -0.50895  -0.43721  -0.35653   0.07936   0.14113
   1 1   C  1S         -0.00318   0.00015  -0.00122   0.00321  -0.03348
   2        2S         -0.00471   0.00028  -0.00198   0.00533  -0.05371
   3        2PX         0.09466  -0.11040  -0.00401   0.00181  -0.03205
   4        2PY         0.16856   0.06538  -0.00674   0.00283  -0.06398
   5        2PZ         0.00598  -0.00004   0.17928  -0.18897  -0.00307
   6        3S          0.01867  -0.00068   0.00580  -0.01612   0.11687
   7        3PX         0.13763  -0.17617  -0.00568   0.00274  -0.03797
   8        3PY         0.24623   0.10439  -0.00950   0.00424  -0.07887
   9        3PZ         0.00949  -0.00004   0.28834  -0.27795  -0.00486
  10        4S         -0.05476  -0.00248   0.00823  -0.01842   1.22880
  11        4PX         0.06935  -0.10917  -0.00471   0.01519  -0.19387
  12        4PY         0.12496   0.06553  -0.00789   0.02457  -0.37848
  13        4PZ         0.00541   0.00002   0.26729  -0.69326  -0.01784
  14 2   H  1S         -0.08077  -0.11445   0.00015   0.00503  -0.01687
  15        2S         -0.11191  -0.17616   0.00235   0.00790  -0.04685
  16        3S         -0.04188  -0.08120   0.00141   0.02058  -0.82927
  17 3   H  1S         -0.07968   0.11213   0.00008   0.00505  -0.01388
  18        2S         -0.10988   0.17225   0.00227   0.00812  -0.03943
  19        3S         -0.04082   0.07937   0.00135   0.02064  -0.77814
  20 4   C  1S         -0.00900  -0.00042  -0.00092  -0.00302  -0.03618
  21        2S         -0.01413  -0.00069  -0.00150  -0.00501  -0.05811
  22        2PX        -0.09787   0.12583   0.00387   0.00186   0.03988
  23        2PY        -0.16188  -0.07437   0.00718   0.00359   0.06123
  24        2PZ         0.00633   0.00028   0.17896   0.18937  -0.00335
  25        3S          0.04519   0.00205   0.00443   0.01508   0.12826
  26        3PX        -0.14492   0.20084   0.00540   0.00289   0.04873
  27        3PY        -0.23836  -0.11835   0.01010   0.00555   0.07271
  28        3PZ         0.00999   0.00044   0.28651   0.27785  -0.00510
  29        4S         -0.02504   0.00228   0.00761   0.01611   1.24291
  30        4PX        -0.07577   0.12831   0.00411   0.01467   0.26274
  31        4PY        -0.12356  -0.07468   0.00788   0.02711   0.41672
  32        4PZ         0.00578   0.00026   0.26769   0.69445  -0.02010
  33 5   H  1S         -0.07434  -0.12547   0.00029  -0.00461  -0.01194
  34        2S         -0.10124  -0.19524   0.00253  -0.00766  -0.03790
  35        3S         -0.03783  -0.09167   0.00142  -0.01978  -0.82929
  36 6   H  1S         -0.07918   0.12511   0.00021  -0.00461  -0.01472
  37        2S         -0.10820   0.19528   0.00240  -0.00760  -0.04506
  38        3S         -0.04060   0.09159   0.00134  -0.01987  -0.88089
                          11        12        13        14        15
                           V         V         V         V         V
     Eigenvalues --     0.16523   0.17063   0.24090   0.37233   0.39433
   1 1   C  1S          0.00131  -0.04539  -0.00008   0.00921   0.00075
   2        2S          0.00212  -0.07398  -0.00013   0.01243   0.00127
   3        2PX         0.09719  -0.01940   0.09953  -0.03579  -0.02365
   4        2PY        -0.05323  -0.03677  -0.05708  -0.06508   0.00917
   5        2PZ         0.00026  -0.00772   0.00008  -0.00549  -0.00020
   6        3S         -0.00468   0.16711   0.00027   0.03404  -0.00325
   7        3PX         0.13871  -0.01060   0.10512  -0.04451  -0.10716
   8        3PY        -0.07711  -0.02365  -0.06078  -0.08400   0.04717
   9        3PZ         0.00036  -0.01072   0.00004  -0.01138  -0.00038
  10        4S         -0.05319   1.43831   0.00052  -2.49752  -0.13402
  11        4PX         0.58810  -0.11399   1.17243  -1.53347  -0.52048
  12        4PY        -0.31557  -0.20296  -0.66426  -2.68182   0.18527
  13        4PZ         0.00168  -0.05069   0.00140  -0.04956  -0.00241
  14 2   H  1S         -0.02832  -0.02544   0.01420  -0.05920   0.07494
  15        2S         -0.07956  -0.01749  -0.02406  -0.66917   0.76569
  16        3S         -1.03448  -1.01192  -1.55322  -0.30321  -0.30271
  17 3   H  1S          0.02853  -0.02472  -0.01574  -0.05384  -0.07626
  18        2S          0.07986  -0.01964   0.01982  -0.62966  -0.76567
  19        3S          1.10469  -1.00594   1.56436  -0.35520   0.25215
  20 4   C  1S          0.00067   0.04228   0.00002  -0.02007   0.00012
  21        2S          0.00106   0.06882   0.00002  -0.03306   0.00040
  22        2PX         0.10109  -0.02190  -0.10036  -0.04117  -0.03031
  23        2PY        -0.06078  -0.03845   0.05746  -0.07219   0.01569
  24        2PZ         0.00017   0.00745  -0.00009   0.00383   0.00026
  25        3S         -0.00193  -0.15218   0.00030   0.04583  -0.00606
  26        3PX         0.14480  -0.01646  -0.11400  -0.09473  -0.10657
  27        3PY        -0.08641  -0.02842   0.06456  -0.16788   0.06309
  28        3PZ         0.00025   0.01024  -0.00007   0.00443   0.00045
  29        4S         -0.03830  -1.34861  -0.00463   3.23605   0.11618
  30        4PX         0.53800  -0.10932  -1.12215  -1.13693  -0.55039
  31        4PY        -0.32736  -0.20362   0.65616  -1.97704   0.14575
  32        4PZ         0.00101   0.04880  -0.00146   0.04076   0.00214
  33 5   H  1S          0.03076   0.02448   0.00580   0.00665  -0.08212
  34        2S          0.06642   0.02156  -0.03550   0.02369  -0.81084
  35        3S          1.06769   0.95719  -1.52718   0.45230   0.46879
  36 6   H  1S         -0.03112   0.02464  -0.00477   0.00388   0.08700
  37        2S         -0.06696   0.01856   0.03578  -0.00063   0.88645
  38        3S         -1.01783   0.93863   1.52387   0.46019  -0.45292
                          16        17        18        19        20
                           V         V         V         V         V
     Eigenvalues --     0.39962   0.46507   0.48938   0.49405   0.59100
   1 1   C  1S         -0.01892   0.01231   0.04640  -0.00124  -0.00065
   2        2S         -0.03310   0.02867   0.07760  -0.00176  -0.00117
   3        2PX         0.02842  -0.06066  -0.01119   0.00166   0.00239
   4        2PY         0.05240  -0.10658  -0.01653   0.00236   0.00369
   5        2PZ         0.00055  -0.00055  -0.00879  -0.15171  -0.19237
   6        3S          0.07406  -0.33642  -0.09213  -0.00934  -0.00076
   7        3PX         0.10535  -0.23863   0.03599   0.00007   0.00805
   8        3PY         0.19777  -0.41810   0.06834  -0.00171   0.01227
   9        3PZ        -0.00393  -0.00505  -0.03862  -0.62768  -0.68458
  10        4S          2.78999   0.15187  -3.09544   0.16280   0.08156
  11        4PX         0.30653   0.24807  -0.82371   0.04939   0.02372
  12        4PY         0.55969   0.44318  -1.40766   0.08718   0.04499
  13        4PZ        -0.00178   0.00112   0.11697   0.68237   1.23968
  14 2   H  1S         -0.02516  -0.03426   0.07516  -0.00447  -0.00195
  15        2S         -0.52279  -0.33450   0.90627  -0.04629  -0.01432
  16        3S          0.32815   0.07024  -0.62990   0.04708   0.02732
  17 3   H  1S         -0.03193  -0.03489   0.07404  -0.00438  -0.00195
  18        2S         -0.58085  -0.33844   0.88082  -0.04520  -0.01432
  19        3S          0.34172   0.07105  -0.61681   0.04631   0.02702
  20 4   C  1S          0.00025  -0.00275  -0.05079   0.00449   0.00084
  21        2S         -0.00320   0.00299  -0.08842   0.00807   0.00158
  22        2PX         0.01008   0.05514  -0.02863   0.00074   0.00244
  23        2PY         0.01898   0.09397  -0.04952   0.00092   0.00465
  24        2PZ        -0.00437  -0.00207  -0.00877  -0.15255   0.19213
  25        3S          0.07782  -0.28566   0.23100  -0.02917  -0.00309
  26        3PX        -0.04040   0.23723  -0.05955   0.00163   0.00846
  27        3PY        -0.06083   0.40811  -0.10026   0.00121   0.01618
  28        3PZ        -0.01221  -0.00850  -0.03368  -0.63101   0.68218
  29        4S         -0.99339   0.76090   3.10855  -0.18838  -0.07203
  30        4PX         1.30684  -0.32159  -0.59790   0.02846   0.02644
  31        4PY         2.33746  -0.55465  -1.02872   0.04923   0.04147
  32        4PZ        -0.03983  -0.01950  -0.02949   0.69552  -1.23691
  33 5   H  1S         -0.04608  -0.06349  -0.06460   0.00399   0.00188
  34        2S         -0.83572  -0.65375  -0.81822   0.05693   0.00822
  35        3S         -0.22523   0.26275   0.54537  -0.02196  -0.02667
  36 6   H  1S         -0.03964  -0.06389  -0.06338   0.00392   0.00185
  37        2S         -0.75829  -0.65949  -0.80716   0.05582   0.00743
  38        3S         -0.24553   0.27913   0.54835  -0.02250  -0.02676
                          21        22        23        24        25
                           V         V         V         V         V
     Eigenvalues --     0.66617   0.69241   0.77325   0.77567   0.84084
   1 1   C  1S          0.00058  -0.00052   0.04123   0.07886   0.00091
   2        2S          0.00123  -0.00109   0.08681   0.16802   0.00214
   3        2PX        -0.13410   0.19778  -0.04095   0.10839  -0.00759
   4        2PY         0.07766  -0.11748  -0.06875   0.17910   0.01255
   5        2PZ        -0.00015   0.00020   0.00001   0.00574   0.00009
   6        3S         -0.01062   0.01143  -0.54674  -1.42639  -0.02509
   7        3PX        -0.62100   0.69464  -0.23394   0.41223  -0.21970
   8        3PY         0.35667  -0.41345  -0.39334   0.67032   0.15857
   9        3PZ        -0.00076   0.00072   0.00030   0.02008   0.00010
  10        4S          0.01698  -0.02711   0.41104   2.50752   0.05670
  11        4PX         1.08552  -0.79304   0.27554  -0.71893   4.54118
  12        4PY        -0.62279   0.49464   0.34326  -0.98076  -2.55618
  13        4PZ         0.00096   0.00074   0.01894  -0.06242   0.00655
  14 2   H  1S          0.02426  -0.05846   0.00555   0.03384  -0.02677
  15        2S          0.14473  -0.63642   0.05857   0.10731  -1.58809
  16        3S         -1.04762   1.10857   0.04743  -1.11556  -1.23603
  17 3   H  1S         -0.02352   0.05788   0.00570   0.03414   0.03026
  18        2S         -0.15592   0.65059   0.09107   0.07173   1.61882
  19        3S          1.04006  -1.06952   0.08633  -1.23446   1.22999
  20 4   C  1S          0.00079  -0.00007   0.07929   0.04232   0.00046
  21        2S          0.00164  -0.00013   0.16894   0.08929   0.00086
  22        2PX        -0.15030  -0.18566  -0.10365   0.04000   0.00919
  23        2PY         0.08662   0.10399  -0.18551   0.07303   0.00200
  24        2PZ        -0.00017  -0.00022   0.00605  -0.00048  -0.00012
  25        3S         -0.01244  -0.00207  -1.43196  -0.57496  -0.00019
  26        3PX        -0.68057  -0.63158  -0.38781   0.23147   0.22892
  27        3PY         0.39440   0.35156  -0.70030   0.42157  -0.09621
  28        3PZ        -0.00084  -0.00071   0.02145  -0.00209  -0.00010
  29        4S          0.00949   0.01052   2.62722   0.49443  -0.07103
  30        4PX         1.28448   0.78505   0.54984  -0.18590  -4.13654
  31        4PY        -0.74375  -0.41713   1.10730  -0.54540   2.39860
  32        4PZ         0.00160  -0.00056  -0.06373   0.02168  -0.00586
  33 5   H  1S         -0.02503  -0.05475   0.03357   0.00757  -0.02328
  34        2S         -0.14065  -0.54854   0.06628   0.08565  -1.41113
  35        3S          1.11754   0.99315  -1.19428   0.14266  -1.09297
  36 6   H  1S          0.02561   0.05502   0.03322   0.00770   0.02270
  37        2S          0.13638   0.53289   0.08397   0.02997   1.40126
  38        3S         -1.11862  -1.01998  -1.12215   0.08284   1.10843
                          26        27        28        29        30
                           V         V         V         V         V
     Eigenvalues --     0.95074   2.23097   2.29117   2.33286   2.40674
   1 1   C  1S          0.09595  -0.01016  -0.01471   0.00020  -0.00034
   2        2S          0.19939   0.00141  -0.01463   0.00046  -0.00044
   3        2PX        -0.09084  -0.07563  -0.13125   0.34814  -0.40869
   4        2PY        -0.15716  -0.14261  -0.22834  -0.19780   0.22815
   5        2PZ         0.00028  -0.01571  -0.02162   0.00025  -0.00097
   6        3S         -1.54653  -0.18535  -0.03855  -0.00011  -0.00334
   7        3PX        -0.23019   0.07191   0.20774  -0.41709   0.57063
   8        3PY        -0.39310   0.14596   0.37125   0.23865  -0.31886
   9        3PZ        -0.00281   0.01573   0.02683  -0.00019   0.00113
  10        4S          5.71706  -0.10624  -0.88750  -0.00550   0.00089
  11        4PX         1.19498   0.04917  -0.18747  -0.06186   0.98777
  12        4PY         1.98880   0.07305  -0.35685   0.02553  -0.54099
  13        4PZ        -0.02278   0.00354   0.00981  -0.00021   0.00203
  14 2   H  1S          0.01509  -0.70682  -0.79653  -0.70871   0.65144
  15        2S         -0.28544   1.00452   1.19165   1.09961  -1.46207
  16        3S         -0.10325  -0.29806  -0.47367  -0.46578   0.36146
  17 3   H  1S          0.01558  -0.69462  -0.80002   0.69993  -0.66903
  18        2S         -0.26188   0.98626   1.20297  -1.08799   1.49777
  19        3S         -0.08216  -0.27987  -0.46208   0.45597  -0.35464
  20 4   C  1S         -0.09386  -0.01071   0.01246   0.00039   0.00018
  21        2S         -0.19465  -0.00058   0.01261   0.00043   0.00047
  22        2PX        -0.09179   0.13682  -0.12317   0.30118   0.41557
  23        2PY        -0.15868   0.23753  -0.20281  -0.17578  -0.24215
  24        2PZ         0.00041  -0.01703   0.02049   0.00070   0.00048
  25        3S          1.50531  -0.16563   0.01791   0.00140  -0.00103
  26        3PX        -0.22506  -0.17360   0.20934  -0.37424  -0.58082
  27        3PY        -0.39258  -0.29828   0.34267   0.21685   0.34038
  28        3PZ         0.00432   0.01823  -0.02608  -0.00078  -0.00069
  29        4S         -5.69251  -0.18048   0.89433   0.01642  -0.01380
  30        4PX         1.10470  -0.01710  -0.19811   0.11179  -0.85299
  31        4PY         1.97569  -0.03310  -0.31157  -0.06494   0.50697
  32        4PZ         0.01420   0.00568  -0.00757  -0.00001  -0.00179
  33 5   H  1S         -0.01775  -0.79040   0.67171   0.70662   0.68767
  34        2S          0.29297   1.14971  -1.02898  -1.02355  -1.45938
  35        3S          0.06402  -0.35545   0.39571   0.51058   0.42702
  36 6   H  1S         -0.01773  -0.78790   0.69234  -0.68728  -0.68937
  37        2S          0.31144   1.14485  -1.05266   0.99323   1.45638
  38        3S          0.07611  -0.35581   0.42248  -0.50322  -0.43436
                          31        32        33        34        35
                           V         V         V         V         V
     Eigenvalues --     2.67113   2.81747   2.87852   2.95180   3.14007
   1 1   C  1S          0.00060   0.00297  -0.01323  -0.00014  -0.00993
   2        2S          0.00049   0.00849  -0.04349  -0.00059  -0.03011
   3        2PX         0.00640   0.08490  -0.46826  -0.72567   0.44682
   4        2PY         0.00906   0.15032  -0.85589   0.40743   0.77512
   5        2PZ        -0.92440  -0.92593  -0.16227  -0.00185   0.00733
   6        3S         -0.00211  -0.06973   0.38010   0.00670   0.25146
   7        3PX        -0.00497  -0.14664   0.82690   0.87582  -0.42695
   8        3PY        -0.00666  -0.25744   1.48259  -0.47737  -0.73819
   9        3PZ         0.93984   1.13118   0.20350   0.00242  -0.00952
  10        4S          0.01576   0.16336  -0.86312  -0.01691  -0.49233
  11        4PX        -0.00208   0.11729  -0.70653  -0.67277   0.21325
  12        4PY        -0.00314   0.20706  -1.26357   0.35501   0.36175
  13        4PZ        -0.33845  -0.61147  -0.12879  -0.00187   0.00557
  14 2   H  1S          0.01413  -0.02168   0.25769  -0.37381  -0.21033
  15        2S         -0.01597   0.01253  -0.21079   0.38689   0.15847
  16        3S         -0.00366   0.04893  -0.30418   0.27716   0.05265
  17 3   H  1S          0.01443  -0.02144   0.24966   0.37588  -0.21316
  18        2S         -0.01672   0.01153  -0.19875  -0.38568   0.16137
  19        3S         -0.00392   0.04804  -0.29759  -0.29178   0.06337
  20 4   C  1S          0.00059  -0.00287   0.01341   0.00042  -0.00745
  21        2S          0.00056  -0.00893   0.04742   0.00104  -0.02279
  22        2PX        -0.00820   0.07511  -0.40311  -0.81168  -0.50504
  23        2PY        -0.01589   0.13359  -0.71395   0.44536  -0.89927
  24        2PZ        -0.92484   0.92464   0.16585   0.00025   0.01589
  25        3S         -0.00313   0.07655  -0.42660  -0.00795   0.19404
  26        3PX         0.00839  -0.13728   0.76380   0.97052   0.54464
  27        3PY         0.01606  -0.24210   1.34264  -0.52415   0.97799
  28        3PZ         0.94059  -1.12959  -0.20907  -0.00036  -0.02008
  29        4S          0.01784  -0.16606   0.89038   0.02430  -0.36796
  30        4PX        -0.00055   0.11750  -0.70482  -0.70385  -0.33396
  31        4PY        -0.00224   0.20495  -1.23104   0.37610  -0.60518
  32        4PZ        -0.33882   0.61025   0.13354   0.00023   0.01577
  33 5   H  1S          0.01335   0.03217  -0.29471   0.41836  -0.26855
  34        2S         -0.01643  -0.02626   0.27030  -0.42799   0.21130
  35        3S         -0.00159  -0.04428   0.28065  -0.24605   0.13137
  36 6   H  1S          0.01349   0.03177  -0.28733  -0.43161  -0.25467
  37        2S         -0.01703  -0.02646   0.26507   0.43990   0.19948
  38        3S         -0.00131  -0.04327   0.27144   0.25064   0.12171
                          36        37        38
                           V         V         V
     Eigenvalues --     3.32074  23.35365  23.70519
   1 1   C  1S         -0.00013  -1.41473  -1.45157
   2        2S         -0.00013   1.50887   1.56966
   3        2PX         0.79006  -0.00650   0.01222
   4        2PY        -0.43954  -0.01087   0.02120
   5        2PZ         0.00141  -0.00065  -0.00030
   6        3S         -0.00235  -0.29670  -0.39889
   7        3PX        -1.12970   0.02367  -0.05556
   8        3PY         0.62434   0.03992  -0.09619
   9        3PZ        -0.00212   0.00183   0.00091
  10        4S          0.01059   0.27605   0.76661
  11        4PX         1.97885  -0.02503   0.13363
  12        4PY        -1.08879  -0.04345   0.22818
  13        4PZ         0.00363  -0.00308  -0.00368
  14 2   H  1S          0.56547   0.01360   0.00780
  15        2S         -0.87702   0.00718  -0.01536
  16        3S         -0.46802  -0.08461  -0.04036
  17 3   H  1S         -0.57373   0.01473   0.00824
  18        2S          0.88948   0.00735  -0.01463
  19        3S          0.49037  -0.08608  -0.03954
  20 4   C  1S         -0.00008  -1.44682   1.41943
  21        2S         -0.00040   1.54315  -1.53496
  22        2PX        -0.70544   0.00626   0.01256
  23        2PY         0.40690   0.01112   0.02157
  24        2PZ        -0.00117  -0.00065   0.00015
  25        3S          0.00550  -0.30304   0.39001
  26        3PX         1.00530  -0.02270  -0.05598
  27        3PY        -0.58848  -0.04005  -0.09666
  28        3PZ         0.00177   0.00186  -0.00037
  29        4S         -0.03055   0.27916  -0.75842
  30        4PX        -1.76316   0.02412   0.12944
  31        4PY         1.04451   0.04340   0.22605
  32        4PZ        -0.00316  -0.00299   0.00252
  33 5   H  1S          0.48199   0.01353  -0.00478
  34        2S         -0.74898   0.00812   0.01366
  35        3S         -0.43220  -0.08319   0.03729
  36 6   H  1S         -0.47900   0.01264  -0.00421
  37        2S          0.74556   0.00872   0.01385
  38        3S          0.42233  -0.08170   0.03766
     Density Matrix:
                           1         2         3         4         5
   1 1   C  1S          0.65940
   2        2S          0.56150   0.49199
   3        2PX        -0.00052  -0.00069   0.08434
   4        2PY        -0.00116  -0.00159   0.00346   0.08785
   5        2PZ         0.00010   0.00016  -0.00014  -0.00032   0.06437
   6        3S         -0.08891  -0.15381   0.00268   0.00580  -0.00022
   7        3PX         0.00085   0.00130   0.13062   0.00099  -0.00010
   8        3PY         0.00127   0.00196   0.00105   0.13130  -0.00028
   9        3PZ         0.00020   0.00034  -0.00024  -0.00051   0.10353
  10        4S         -0.07934  -0.11425  -0.01586  -0.02795   0.00066
  11        4PX         0.00030   0.00165   0.07005  -0.00436  -0.00070
  12        4PY         0.00060   0.00298  -0.00446   0.06544  -0.00122
  13        4PZ        -0.00014  -0.00033  -0.00097  -0.00165   0.09592
  14 2   H  1S         -0.02072  -0.03299   0.03514  -0.06314  -0.00141
  15        2S         -0.02298  -0.03675   0.04917  -0.08782  -0.00106
  16        3S          0.00057  -0.00073   0.02046  -0.03300  -0.00003
  17 3   H  1S         -0.02108  -0.03354  -0.07270  -0.00206  -0.00158
  18        2S         -0.02326  -0.03715  -0.10041  -0.00237  -0.00126
  19        3S          0.00058  -0.00070  -0.03831   0.00099  -0.00010
  20 4   C  1S          0.00604   0.00973  -0.01080  -0.01882  -0.00048
  21        2S          0.00969   0.01515  -0.01728  -0.03013  -0.00078
  22        2PX         0.01035   0.01655  -0.01255  -0.03213   0.00054
  23        2PY         0.01792   0.02866  -0.03201  -0.04976   0.00106
  24        2PZ        -0.00058  -0.00095  -0.00046  -0.00068   0.06424
  25        3S         -0.02605  -0.03956   0.04846   0.08462   0.00235
  26        3PX         0.01595   0.02472  -0.01839  -0.04596   0.00068
  27        3PY         0.02762   0.04280  -0.04559  -0.07152   0.00140
  28        3PZ        -0.00099  -0.00159  -0.00081  -0.00121   0.10284
  29        4S          0.00533   0.00391   0.02109   0.03728   0.00292
  30        4PX         0.00306   0.00633  -0.01318  -0.02125   0.00075
  31        4PY         0.00522   0.01086  -0.02122  -0.03762   0.00156
  32        4PZ        -0.00084  -0.00135  -0.00125  -0.00200   0.09605
  33 5   H  1S          0.00417   0.00685  -0.00166  -0.01246  -0.00055
  34        2S          0.00620   0.01031   0.00365  -0.02507   0.00000
  35        3S          0.00317   0.00462   0.00433  -0.01754   0.00012
  36 6   H  1S          0.00415   0.00682  -0.00991  -0.00761  -0.00056
  37        2S          0.00621   0.01034  -0.02341  -0.00934  -0.00004
  38        3S          0.00316   0.00464  -0.01722  -0.00508   0.00009
                           6         7         8         9        10
   6        3S          0.45251
   7        3PX        -0.00162   0.20259
   8        3PY        -0.00181  -0.00479   0.19671
   9        3PZ        -0.00067  -0.00019  -0.00045   0.16650
  10        4S          0.27323  -0.02667  -0.04759   0.00085   0.18200
  11        4PX        -0.00705   0.10898  -0.00987  -0.00113  -0.01565
  12        4PY        -0.01229  -0.01009   0.09843  -0.00196  -0.02853
  13        4PZ         0.00143  -0.00130  -0.00218   0.15426   0.00254
  14 2   H  1S          0.08818   0.05663  -0.09837  -0.00234   0.06923
  15        2S          0.09840   0.07961  -0.13633  -0.00179   0.08143
  16        3S          0.00617   0.03346  -0.05063  -0.00006   0.01109
  17 3   H  1S          0.08972  -0.11385  -0.00158  -0.00258   0.06951
  18        2S          0.09951  -0.15706  -0.00084  -0.00207   0.08087
  19        3S          0.00618  -0.05968   0.00333  -0.00016   0.01043
  20 4   C  1S         -0.02637  -0.01690  -0.02942  -0.00081   0.00507
  21        2S         -0.03990  -0.02626  -0.04577  -0.00131   0.00378
  22        2PX        -0.04635  -0.01791  -0.04566   0.00092  -0.01757
  23        2PY        -0.08023  -0.04546  -0.07088   0.00181  -0.03008
  24        2PZ         0.00281  -0.00063  -0.00090   0.10331   0.00288
  25        3S          0.10146   0.07125   0.12453   0.00393   0.00105
  26        3PX        -0.06694  -0.02637  -0.06514   0.00119  -0.02604
  27        3PY        -0.11582  -0.06456  -0.10184   0.00241  -0.04453
  28        3PZ         0.00466  -0.00112  -0.00162   0.16539   0.00478
  29        4S          0.00204   0.03194   0.05661   0.00486  -0.03203
  30        4PX        -0.02244  -0.01969  -0.02994   0.00125  -0.00631
  31        4PY        -0.03864  -0.02989  -0.05423   0.00258  -0.01034
  32        4PZ         0.00397  -0.00176  -0.00277   0.15446   0.00445
  33 5   H  1S         -0.02034  -0.00058  -0.01777  -0.00080  -0.01450
  34        2S         -0.03080   0.00881  -0.03672   0.00010  -0.01873
  35        3S         -0.01183   0.00824  -0.02631   0.00022  -0.00329
  36 6   H  1S         -0.02027  -0.01496  -0.00926  -0.00082  -0.01485
  37        2S         -0.03094  -0.03590  -0.01059   0.00005  -0.01959
  38        3S         -0.01195  -0.02663  -0.00608   0.00017  -0.00379
                          11        12        13        14        15
  11        4PX         0.05964
  12        4PY        -0.00870   0.05077
  13        4PZ        -0.00164  -0.00274   0.14295
  14 2   H  1S          0.03340  -0.05388  -0.00121   0.08159
  15        2S          0.04780  -0.07452  -0.00043   0.10962   0.14933
  16        3S          0.02061  -0.02753   0.00026   0.03652   0.05198
  17 3   H  1S         -0.06289   0.00161  -0.00132  -0.01326  -0.02458
  18        2S         -0.08710   0.00386  -0.00056  -0.02457  -0.04226
  19        3S         -0.03334   0.00417   0.00021  -0.01790  -0.02693
  20 4   C  1S         -0.00321  -0.00581  -0.00072   0.00424   0.00678
  21        2S         -0.00661  -0.01184  -0.00116   0.00702   0.01133
  22        2PX        -0.01326  -0.01991   0.00127   0.00177  -0.00266
  23        2PY        -0.01988  -0.03684   0.00241   0.01135   0.02417
  24        2PZ        -0.00093  -0.00145   0.09573  -0.00068  -0.00022
  25        3S          0.02333   0.04155   0.00340  -0.02116  -0.03413
  26        3PX        -0.02032  -0.02827   0.00172   0.00110  -0.00691
  27        3PY        -0.02811  -0.05379   0.00332   0.01702   0.03636
  28        3PZ        -0.00154  -0.00240   0.15325  -0.00100  -0.00024
  29        4S          0.00853   0.01590   0.00442  -0.01809  -0.02489
  30        4PX        -0.01476  -0.01256   0.00154  -0.00144  -0.00801
  31        4PY        -0.01265  -0.02967   0.00305   0.01516   0.02706
  32        4PZ        -0.00184  -0.00296   0.14315  -0.00057   0.00031
  33 5   H  1S          0.00204  -0.01583  -0.00040   0.01118   0.02320
  34        2S          0.00926  -0.02751   0.00056   0.02379   0.04424
  35        3S          0.00753  -0.01580   0.00040   0.01667   0.02781
  36 6   H  1S         -0.01443  -0.00571  -0.00042  -0.00915  -0.01821
  37        2S         -0.02796  -0.00510   0.00053  -0.01890  -0.03424
  38        3S         -0.01712  -0.00115   0.00037  -0.01019  -0.01766
                          16        17        18        19        20
  16        3S          0.02071
  17 3   H  1S         -0.01794   0.08236
  18        2S         -0.02692   0.10970   0.14819
  19        3S         -0.01259   0.03602   0.05092   0.02012
  20 4   C  1S          0.00375   0.00428   0.00673   0.00372   0.65948
  21        2S          0.00555   0.00707   0.01123   0.00546   0.56159
  22        2PX        -0.00338   0.00903   0.02230   0.01678   0.00112
  23        2PY         0.01765   0.00737   0.00971   0.00572   0.00179
  24        2PZ         0.00003  -0.00067  -0.00017   0.00007   0.00010
  25        3S         -0.01442  -0.02122  -0.03366  -0.01407  -0.08930
  26        3PX        -0.00671   0.01430   0.03499   0.02613  -0.00054
  27        3PY         0.02663   0.00953   0.01191   0.00719  -0.00107
  28        3PZ         0.00007  -0.00098  -0.00015   0.00014   0.00021
  29        4S         -0.00614  -0.01773  -0.02392  -0.00561  -0.08010
  30        4PX        -0.00676   0.01403   0.02761   0.01707  -0.00017
  31        4PY         0.01592   0.00668   0.00689   0.00212  -0.00019
  32        4PZ         0.00032  -0.00056   0.00036   0.00035  -0.00005
  33 5   H  1S          0.01610  -0.00902  -0.01803  -0.00935  -0.02017
  34        2S          0.02723  -0.01862  -0.03378  -0.01683  -0.02214
  35        3S          0.01456  -0.01008  -0.01746  -0.00891   0.00062
  36 6   H  1S         -0.00946   0.01118   0.02318   0.01592  -0.01998
  37        2S         -0.01709   0.02370   0.04406   0.02695  -0.02211
  38        3S         -0.00903   0.01657   0.02757   0.01437   0.00054
                          21        22        23        24        25
  21        2S          0.49210
  22        2PX         0.00161   0.08295
  23        2PY         0.00254   0.00361   0.08762
  24        2PZ         0.00015   0.00016   0.00022   0.06415
  25        3S         -0.15433  -0.00520  -0.00832  -0.00020   0.45400
  26        3PX        -0.00081   0.12884   0.00187   0.00010   0.00001
  27        3PY        -0.00162   0.00187   0.13147   0.00008   0.00073
  28        3PZ         0.00036   0.00025   0.00036   0.10270  -0.00072
  29        4S         -0.11572   0.01329   0.02263   0.00079   0.27836
  30        4PX        -0.00138   0.07327  -0.00509   0.00052   0.00592
  31        4PY        -0.00222  -0.00503   0.06737   0.00098   0.00981
  32        4PZ        -0.00016   0.00094   0.00168   0.09589   0.00092
  33 5   H  1S         -0.03212  -0.03343   0.06379  -0.00154   0.08589
  34        2S         -0.03538  -0.04977   0.08852  -0.00122   0.09464
  35        3S         -0.00057  -0.02272   0.03345  -0.00012   0.00553
  36 6   H  1S         -0.03183   0.07151   0.00259  -0.00138   0.08513
  37        2S         -0.03534   0.10143   0.00064  -0.00100   0.09456
  38        3S         -0.00068   0.04050  -0.00320  -0.00004   0.00580
                          26        27        28        29        30
  26        3PX         0.20043
  27        3PY        -0.00249   0.19779
  28        3PZ         0.00014   0.00012   0.16442
  29        4S          0.02453   0.04156   0.00100   0.18575
  30        4PX         0.11441  -0.01056   0.00083   0.01491   0.06637
  31        4PY        -0.01047   0.10188   0.00156   0.02460  -0.01027
  32        4PZ         0.00119   0.00216   0.15353   0.00239   0.00133
  33 5   H  1S         -0.05330   0.09993  -0.00253   0.06685  -0.03439
  34        2S         -0.07977   0.13819  -0.00203   0.07679  -0.05187
  35        3S         -0.03684   0.05158  -0.00019   0.00906  -0.02409
  36 6   H  1S          0.11276   0.00332  -0.00230   0.06699   0.06580
  37        2S          0.15974  -0.00069  -0.00170   0.07778   0.09368
  38        3S          0.06346  -0.00646  -0.00007   0.00974   0.03758
                          31        32        33        34        35
  31        4PY         0.05397
  32        4PZ         0.00253   0.14339
  33 5   H  1S          0.05595  -0.00131   0.08106
  34        2S          0.07750  -0.00056   0.11007   0.15194
  35        3S          0.02905   0.00019   0.03802   0.05507   0.02279
  36 6   H  1S         -0.00195  -0.00120  -0.01243  -0.02612  -0.02005
  37        2S         -0.00634  -0.00040  -0.02617  -0.04846  -0.03170
  38        3S         -0.00637   0.00024  -0.02015  -0.03174  -0.01564
                          36        37        38
  36 6   H  1S          0.08046
  37        2S          0.10989   0.15251
  38        3S          0.03821   0.05556   0.02304
    Full Mulliken population analysis:
                           1         2         3         4         5
   1 1   C  1S          0.65940
   2        2S          0.49325   0.49199
   3        2PX         0.00000   0.00000   0.08434
   4        2PY         0.00000   0.00000   0.00000   0.08785
   5        2PZ         0.00000   0.00000   0.00000   0.00000   0.06437
   6        3S         -0.02927  -0.06442   0.00000   0.00000   0.00000
   7        3PX         0.00000   0.00000   0.08217   0.00000   0.00000
   8        3PY         0.00000   0.00000   0.00000   0.08261   0.00000
   9        3PZ         0.00000   0.00000   0.00000   0.00000   0.06513
  10        4S         -0.01220  -0.02138   0.00000   0.00000   0.00000
  11        4PX         0.00000   0.00000   0.01543   0.00000   0.00000
  12        4PY         0.00000   0.00000   0.00000   0.01441   0.00000
  13        4PZ         0.00000   0.00000   0.00000   0.00000   0.02112
  14 2   H  1S         -0.00024  -0.00034   0.00188   0.00567   0.00000
  15        2S         -0.00169  -0.00323   0.00440   0.01318   0.00001
  16        3S          0.00004  -0.00007   0.00070   0.00189   0.00000
  17 3   H  1S         -0.00025  -0.00037   0.00787   0.00000   0.00001
  18        2S         -0.00174  -0.00333   0.01770   0.00000   0.00001
  19        3S          0.00005  -0.00007   0.00255  -0.00000   0.00000
  20 4   C  1S          0.00000   0.00000  -0.00002  -0.00006   0.00000
  21        2S          0.00000  -0.00000  -0.00002  -0.00005   0.00000
  22        2PX        -0.00002  -0.00002   0.00011   0.00085   0.00000
  23        2PY        -0.00006  -0.00005   0.00084   0.00195   0.00000
  24        2PZ        -0.00000  -0.00000  -0.00000  -0.00000   0.00041
  25        3S         -0.00058  -0.00098   0.00252   0.00761  -0.00000
  26        3PX        -0.00054  -0.00098   0.00019   0.00554   0.00000
  27        3PY        -0.00161  -0.00295   0.00549   0.01071   0.00000
  28        3PZ        -0.00000  -0.00000  -0.00000  -0.00000   0.00607
  29        4S          0.00034   0.00030   0.00096   0.00293  -0.00000
  30        4PX        -0.00018  -0.00045  -0.00071   0.00147   0.00000
  31        4PY        -0.00053  -0.00133   0.00147   0.00098   0.00000
  32        4PZ        -0.00000  -0.00000  -0.00000  -0.00000   0.00902
  33 5   H  1S          0.00000   0.00000  -0.00000  -0.00000   0.00000
  34        2S          0.00001   0.00002   0.00000  -0.00031  -0.00000
  35        3S          0.00007   0.00013   0.00001  -0.00070  -0.00000
  36 6   H  1S          0.00000   0.00000  -0.00000  -0.00000   0.00000
  37        2S          0.00001   0.00002  -0.00024  -0.00007   0.00000
  38        3S          0.00007   0.00013  -0.00057  -0.00012  -0.00000
                           6         7         8         9        10
   6        3S          0.45251
   7        3PX         0.00000   0.20259
   8        3PY         0.00000   0.00000   0.19671
   9        3PZ         0.00000   0.00000   0.00000   0.16650
  10        4S          0.21167   0.00000   0.00000   0.00000   0.18200
  11        4PX         0.00000   0.07122   0.00000   0.00000   0.00000
  12        4PY         0.00000   0.00000   0.06432   0.00000   0.00000
  13        4PZ         0.00000   0.00000   0.00000   0.10080   0.00000
  14 2   H  1S          0.01633   0.01111   0.03235   0.00003   0.01837
  15        2S          0.04161   0.01995   0.05726   0.00003   0.04705
  16        3S          0.00285   0.00399   0.01011   0.00000   0.00838
  17 3   H  1S          0.01697   0.04422   0.00000   0.00004   0.01859
  18        2S          0.04258   0.07718   0.00000   0.00004   0.04701
  19        3S          0.00287   0.01385  -0.00000   0.00000   0.00791
  20 4   C  1S         -0.00059  -0.00057  -0.00171   0.00000   0.00032
  21        2S         -0.00099  -0.00104  -0.00315   0.00000   0.00029
  22        2PX         0.00241   0.00019   0.00550   0.00000   0.00080
  23        2PY         0.00722   0.00548   0.01061   0.00000   0.00236
  24        2PZ         0.00000  -0.00000  -0.00000   0.00609   0.00000
  25        3S          0.02155   0.01332   0.04032  -0.00000   0.00040
  26        3PX         0.01251  -0.00126   0.01856   0.00000   0.00401
  27        3PY         0.03750   0.01840   0.02864   0.00000   0.01188
  28        3PZ         0.00000  -0.00000  -0.00000   0.03512   0.00000
  29        4S          0.00077   0.00492   0.01511  -0.00000  -0.02008
  30        4PX         0.00630  -0.00403   0.00593   0.00000   0.00191
  31        4PY         0.01879   0.00592   0.00131   0.00000   0.00542
  32        4PZ         0.00000  -0.00000  -0.00000   0.04927   0.00000
  33 5   H  1S         -0.00005  -0.00000  -0.00019   0.00000  -0.00077
  34        2S         -0.00118   0.00007  -0.00320  -0.00000  -0.00313
  35        3S         -0.00192   0.00011  -0.00423  -0.00000  -0.00118
  36 6   H  1S         -0.00005  -0.00013  -0.00005   0.00000  -0.00079
  37        2S         -0.00117  -0.00256  -0.00052  -0.00000  -0.00325
  38        3S         -0.00193  -0.00352  -0.00056  -0.00000  -0.00136
                          11        12        13        14        15
  11        4PX         0.05964
  12        4PY         0.00000   0.05077
  13        4PZ         0.00000   0.00000   0.14295
  14 2   H  1S          0.00641   0.01732   0.00002   0.08159
  15        2S          0.01542   0.04029   0.00001   0.07743   0.14933
  16        3S          0.00521   0.01165  -0.00000   0.01365   0.04101
  17 3   H  1S          0.02355  -0.00000   0.00002  -0.00001  -0.00064
  18        2S          0.05478  -0.00000   0.00001  -0.00064  -0.00524
  19        3S          0.01638  -0.00000  -0.00000  -0.00198  -0.00781
  20 4   C  1S         -0.00019  -0.00059   0.00000   0.00000   0.00002
  21        2S         -0.00047  -0.00145   0.00000   0.00000   0.00003
  22        2PX        -0.00071   0.00138   0.00000  -0.00000   0.00000
  23        2PY         0.00138   0.00096   0.00000  -0.00000  -0.00037
  24        2PZ        -0.00000  -0.00000   0.00899   0.00000   0.00000
  25        3S          0.00655   0.02021  -0.00000  -0.00007  -0.00154
  26        3PX        -0.00416   0.00560   0.00000  -0.00000   0.00004
  27        3PY         0.00557   0.00130   0.00000  -0.00023  -0.00363
  28        3PZ        -0.00000  -0.00000   0.04888   0.00000   0.00000
  29        4S          0.00258   0.00834  -0.00000  -0.00107  -0.00452
  30        4PX        -0.00710   0.00318   0.00000   0.00001   0.00016
  31        4PY         0.00321  -0.00558   0.00000  -0.00243  -0.01028
  32        4PZ        -0.00000  -0.00000   0.08978   0.00000  -0.00000
  33 5   H  1S          0.00003  -0.00233   0.00000   0.00000   0.00000
  34        2S          0.00028  -0.00984  -0.00000   0.00000   0.00016
  35        3S          0.00029  -0.00728  -0.00000   0.00024   0.00148
  36 6   H  1S         -0.00175  -0.00048   0.00000  -0.00000  -0.00004
  37        2S         -0.00822  -0.00104  -0.00000  -0.00005  -0.00094
  38        3S         -0.00650  -0.00030  -0.00000  -0.00047  -0.00249
                          16        17        18        19        20
  16        3S          0.02071
  17 3   H  1S         -0.00199   0.08236
  18        2S         -0.00781   0.07749   0.14819
  19        3S         -0.00652   0.01346   0.04017   0.02012
  20 4   C  1S          0.00009   0.00000   0.00002   0.00009   0.65948
  21        2S          0.00017   0.00000   0.00003   0.00016   0.49332
  22        2PX         0.00001  -0.00000  -0.00028  -0.00059   0.00000
  23        2PY        -0.00075  -0.00000  -0.00008  -0.00013   0.00000
  24        2PZ        -0.00000   0.00000   0.00000  -0.00000   0.00000
  25        3S         -0.00251  -0.00007  -0.00150  -0.00244  -0.02940
  26        3PX         0.00006  -0.00016  -0.00290  -0.00366   0.00000
  27        3PY        -0.00448  -0.00007  -0.00065  -0.00067   0.00000
  28        3PZ        -0.00000   0.00000   0.00000  -0.00000   0.00000
  29        4S         -0.00232  -0.00105  -0.00432  -0.00211  -0.01232
  30        4PX         0.00017  -0.00187  -0.00873  -0.00674   0.00000
  31        4PY        -0.00753  -0.00059  -0.00144  -0.00055   0.00000
  32        4PZ        -0.00000   0.00000  -0.00000  -0.00000   0.00000
  33 5   H  1S          0.00023  -0.00000  -0.00004  -0.00042  -0.00022
  34        2S          0.00145  -0.00004  -0.00090  -0.00234  -0.00159
  35        3S          0.00247  -0.00046  -0.00242  -0.00284   0.00005
  36 6   H  1S         -0.00044   0.00000   0.00000   0.00022  -0.00021
  37        2S         -0.00241   0.00000   0.00016   0.00142  -0.00157
  38        3S         -0.00291   0.00023   0.00145   0.00242   0.00004
                          21        22        23        24        25
  21        2S          0.49210
  22        2PX         0.00000   0.08295
  23        2PY         0.00000   0.00000   0.08762
  24        2PZ         0.00000   0.00000   0.00000   0.06415
  25        3S         -0.06463   0.00000   0.00000   0.00000   0.45400
  26        3PX         0.00000   0.08106   0.00000   0.00000   0.00000
  27        3PY         0.00000   0.00000   0.08271   0.00000   0.00000
  28        3PZ         0.00000   0.00000   0.00000   0.06461   0.00000
  29        4S         -0.02166   0.00000   0.00000   0.00000   0.21565
  30        4PX         0.00000   0.01614   0.00000   0.00000   0.00000
  31        4PY         0.00000   0.00000   0.01484   0.00000   0.00000
  32        4PZ         0.00000   0.00000   0.00000   0.02112   0.00000
  33 5   H  1S         -0.00031   0.00149   0.00576   0.00001   0.01554
  34        2S         -0.00305   0.00381   0.01372   0.00001   0.03950
  35        3S         -0.00005   0.00067   0.00200   0.00000   0.00254
  36 6   H  1S         -0.00029   0.00700   0.00002   0.00000   0.01515
  37        2S         -0.00300   0.01738   0.00001   0.00001   0.03910
  38        3S         -0.00006   0.00270  -0.00001   0.00000   0.00265
                          26        27        28        29        30
  26        3PX         0.20043
  27        3PY         0.00000   0.19779
  28        3PZ         0.00000   0.00000   0.16442
  29        4S          0.00000   0.00000   0.00000   0.18575
  30        4PX         0.07476   0.00000   0.00000   0.00000   0.06637
  31        4PY         0.00000   0.06657   0.00000   0.00000   0.00000
  32        4PZ         0.00000   0.00000   0.10032   0.00000   0.00000
  33 5   H  1S          0.00889   0.03378   0.00003   0.01758   0.00569
  34        2S          0.01718   0.06028   0.00003   0.04407   0.01447
  35        3S          0.00380   0.01077   0.00000   0.00682   0.00528
  36 6   H  1S          0.04196   0.00008   0.00003   0.01751   0.02454
  37        2S          0.07727  -0.00002   0.00003   0.04442   0.05897
  38        3S          0.01478  -0.00009   0.00000   0.00731   0.01861
                          31        32        33        34        35
  31        4PY         0.05397
  32        4PZ         0.00000   0.14339
  33 5   H  1S          0.01876   0.00002   0.08106
  34        2S          0.04380   0.00001   0.07775   0.15194
  35        3S          0.01289  -0.00000   0.01421   0.04345   0.02279
  36 6   H  1S         -0.00005   0.00001  -0.00001  -0.00082  -0.00238
  37        2S         -0.00025   0.00001  -0.00082  -0.00677  -0.00973
  38        3S         -0.00020  -0.00000  -0.00239  -0.00974  -0.00841
                          36        37        38
  36 6   H  1S          0.08046
  37        2S          0.07762   0.15251
  38        3S          0.01428   0.04384   0.02304
     Gross orbital populations:
                           1
   1 1   C  1S          1.10435
   2        2S          0.88586
   3        2PX         0.22710
   4        2PY         0.23634
   5        2PZ         0.16615
   6        3S          0.79286
   7        3PX         0.56156
   8        3PY         0.55572
   9        3PZ         0.42306
  10        4S          0.50423
  11        4PX         0.25882
  12        4PY         0.21083
  13        4PZ         0.41256
  14 2   H  1S          0.27488
  15        2S          0.46644
  16        3S          0.08508
  17 3   H  1S          0.27724
  18        2S          0.46477
  19        3S          0.08277
  20 4   C  1S          1.10440
  21        2S          0.88584
  22        2PX         0.22282
  23        2PY         0.23604
  24        2PZ         0.16539
  25        3S          0.79284
  26        3PX         0.55299
  27        3PY         0.55707
  28        3PZ         0.41956
  29        4S          0.50589
  30        4PX         0.27416
  31        4PY         0.21718
  32        4PZ         0.41293
  33 5   H  1S          0.27326
  34        2S          0.46910
  35        3S          0.08845
  36 6   H  1S          0.27140
  37        2S          0.47015
  38        3S          0.08992
          Condensed to atoms (all electrons):
               1          2          3          4          5          6
     1  C    5.031358   0.387938   0.388394   0.601973  -0.035301  -0.034941
     2  H    0.387938   0.515811  -0.032644  -0.040985   0.006018  -0.009740
     3  H    0.388394  -0.032644   0.512909  -0.040317  -0.009471   0.005915
     4  C    0.601973  -0.040985  -0.040317   5.058593   0.384032   0.383821
     5  H   -0.035301   0.006018  -0.009471   0.384032   0.526602  -0.041069
     6  H   -0.034941  -0.009740   0.005915   0.383821  -0.041069   0.527480
 Mulliken charges:
               1
     1  C   -0.339421
     2  H    0.173601
     3  H    0.175214
     4  C   -0.347117
     5  H    0.169189
     6  H    0.168534
 Sum of Mulliken charges =  -0.00000
 Mulliken charges with hydrogens summed into heavy atoms:
               1
     1  C    0.009394
     4  C   -0.009394
 Electronic spatial extent (au):  <R**2>=             83.6592
 Charge=              0.0000 electrons
 Dipole moment (field-independent basis, Debye):
    X=              0.0087    Y=              0.0234    Z=             -0.1248  Tot=              0.1273
 Quadrupole moment (field-independent basis, Debye-Ang):
   XX=            -12.1992   YY=            -12.2232   ZZ=            -15.6640
   XY=              0.0077   XZ=              0.0011   YZ=             -0.0040
 Traceless Quadrupole moment (field-independent basis, Debye-Ang):
   XX=              1.1629   YY=              1.1389   ZZ=             -2.3018
   XY=              0.0077   XZ=              0.0011   YZ=             -0.0040
 Octapole moment (field-independent basis, Debye-Ang**2):
  XXX=             -0.3590  YYY=             -0.0038  ZZZ=             -0.0546  XYY=              0.2271
  XXY=             -0.0418  XXZ=             -0.1611  XZZ=             -0.0819  YZZ=             -0.0824
  YYZ=             -0.2139  XYZ=             -0.0460
 Hexadecapole moment (field-independent basis, Debye-Ang**3):
 XXXX=            -34.2466 YYYY=            -55.1806 ZZZZ=            -17.8163 XXXY=             -7.2720
 XXXZ=              0.0253 YYYX=            -10.7042 YYYZ=              0.0292 ZZZX=              0.0260
 ZZZY=              0.0539 XXYY=            -16.1740 XXZZ=             -9.9116 YYZZ=            -13.6230
 XXYZ=              0.0138 YYXZ=             -0.0002 ZZXY=             -3.2045
 N-N= 3.308158531218D+01 E-N=-2.478790499648D+02  KE= 7.816004658369D+01
 Orbital energies and kinetic energies (alpha):
                                 1                 2
   1         O               -10.289790         15.978001
   2         O               -10.287903         15.980221
   3         O                -0.863730          1.536212
   4         O                -0.672870          1.273100
   5         O                -0.560020          0.942990
   6         O                -0.508947          1.285580
   7         O                -0.437215          1.045931
   8         O                -0.356529          1.037989
   9         V                 0.079361          1.182379
  10         V                 0.141125          0.587722
  11         V                 0.165226          0.591884
  12         V                 0.170629          0.677510
  13         V                 0.240903          0.581826
  14         V                 0.372331          0.851268
  15         V                 0.394330          0.935068
  16         V                 0.399618          0.785970
  17         V                 0.465074          1.193119
  18         V                 0.489381          1.420151
  19         V                 0.494053          1.302983
  20         V                 0.591005          1.651814
  21         V                 0.666168          1.574079
  22         V                 0.692411          2.147752
  23         V                 0.773248          2.375743
  24         V                 0.775665          2.371517
  25         V                 0.840841          1.083208
  26         V                 0.950740          3.416458
  27         V                 2.230969          3.928632
  28         V                 2.291174          4.027827
  29         V                 2.332859          4.306288
  30         V                 2.406740          4.519942
  31         V                 2.671131          6.300473
  32         V                 2.817472          6.304599
  33         V                 2.878523          6.141477
  34         V                 2.951801          6.225343
  35         V                 3.140065          6.820438
  36         V                 3.320745          6.403062
  37         V                23.353653         60.075262
  38         V                23.705192         60.202916
 Total kinetic energy from orbitals= 7.816004658369D+01
 Calling FoFJK, ICntrl=      2127 FMM=F ISym2X=0 I1Cent= 0 IOpClX= 0 NMat=1 NMatS=1 NMatT=0.
 -------------------------------------------------------------------
 Center     Atomic                   Forces (Hartrees/Bohr)
 Number     Number              X              Y              Z
 -------------------------------------------------------------------
      1        6           0.013628466    0.012860912   -0.005012355
      2        1          -0.009226931    0.003395291    0.002469554
      3        1           0.002822211   -0.005286349    0.002328594
      4        6           0.006883588    0.007342689   -0.005295514
      5        1           0.000748003   -0.012520785    0.002716069
      6        1          -0.014855337   -0.005791759    0.002793652
 -------------------------------------------------------------------
 Cartesian Forces:  Max     0.014855337 RMS     0.007733173

 GradGradGradGradGradGradGradGradGradGradGradGradGradGradGradGradGradGrad
 Berny optimization.
 Search for a local minimum.
 Step number   1 out of a maximum of    2
 All quantities printed in internal units (Hartrees-Bohrs-Radians)
 Second derivative matrix not updated -- first step.
 The second derivative matrix:
                          X1        Y1        Z1        X2        Y2
           X1           0.76080
           Y1           0.09293   0.85645
           Z1           0.00734   0.01126   0.16983
           X2          -0.16791   0.09901   0.00273   0.14530
           Y2           0.10469  -0.28410  -0.00956  -0.11820   0.27273
           Z2           0.00431  -0.01202  -0.05464  -0.00392   0.00986
           X3          -0.35219  -0.00027  -0.01045  -0.00012  -0.00005
           Y3          -0.00600  -0.11040  -0.00253   0.03231   0.01919
           Z3          -0.01339  -0.00243  -0.05592   0.00195   0.00076
           X4          -0.26592  -0.17712  -0.00090   0.02274   0.01355
           Y4          -0.17716  -0.47031  -0.00142  -0.01313  -0.00782
           Z4           0.00171   0.00313  -0.09352  -0.00076  -0.00105
           X5           0.02357  -0.01360   0.00080  -0.00001   0.00001
           Y5           0.01161  -0.00670   0.00108   0.00001  -0.00000
           Z5          -0.00066   0.00041   0.01749   0.00032  -0.00017
           X6           0.00164  -0.00095   0.00048  -0.00001   0.00001
           Y6          -0.02607   0.01506   0.00118   0.00001  -0.00000
           Z6           0.00068  -0.00036   0.01676  -0.00032   0.00016
                          Z2        X3        Y3        Z3        X4
           Z2           0.02858
           X3          -0.00038   0.35227
           Y3           0.00212   0.00034   0.07582
           Z3           0.01057   0.01139   0.00166   0.02936
           X4           0.00062   0.00006  -0.02666  -0.00060   0.71500
           Y4          -0.00033  -0.00004   0.01539   0.00038   0.12000
           Z4           0.01543  -0.00056  -0.00125   0.01606  -0.00661
           X5          -0.00032  -0.00001   0.00001   0.00032  -0.14606
           Y5           0.00020   0.00001  -0.00000  -0.00021   0.09265
           Z5           0.00921   0.00033  -0.00021  -0.00936  -0.00399
           X6          -0.00031  -0.00001   0.00001   0.00032  -0.32583
           Y6           0.00016   0.00001  -0.00000  -0.00017  -0.02241
           Z6          -0.00914  -0.00033   0.00021   0.00929   0.01147
                          Y4        Z4        X5        Y5        Z5
           Y4           0.85979
           Z4          -0.01282   0.17624
           X5           0.08410  -0.00264   0.12462
           Y5          -0.29210   0.00955  -0.10326   0.28270
           Z5           0.01179  -0.05754   0.00356  -0.01018   0.02993
           X6          -0.01377   0.00886  -0.00209  -0.00102   0.00044
           Y6          -0.10495   0.00244   0.03275   0.01610  -0.00165
           Z6           0.00240  -0.05667  -0.00171  -0.00044   0.01027
                          X6        Y6        Z6
           X6           0.32630
           Y6           0.01572   0.07380
           Z6          -0.00980  -0.00197   0.02950
 ITU=  0
     Eigenvalues ---    0.03707   0.04393   0.09126   0.10154   0.13524
     Eigenvalues ---    0.17550   0.26230   0.29224   0.53179   0.70623
     Eigenvalues ---    0.97988   1.55747
 Angle between quadratic step and forces=  36.46 degrees.
 Linear search not attempted -- first point.
 B after Tr=     0.006869    0.008134   -0.012858
         Rot=    1.000000   -0.000071    0.000041   -0.000108 Ang=  -0.02 deg.
 Variable       Old X    -DE/DX   Delta X   Delta X   Delta X     New X
                                 (Linear)    (Quad)   (Total)
    X1       -0.63656   0.01363   0.00000   0.02181   0.02892  -0.60765
    Y1       -1.10151   0.01286   0.00000   0.02568   0.03368  -1.06783
    Z1        0.01513  -0.00501   0.00000  -0.02758  -0.04064  -0.02551
    X2        0.42209  -0.00923   0.00000  -0.04186  -0.03437   0.38772
    Y2       -2.87572   0.00340   0.00000   0.01149   0.01971  -2.85601
    Z2       -0.05357   0.00247   0.00000   0.03367   0.02043  -0.03314
    X3       -2.68773   0.00282   0.00000   0.02795   0.03507  -2.65266
    Y3       -1.10448  -0.00529   0.00000  -0.01811  -0.01055  -1.11503
    Z3       -0.05714   0.00233   0.00000   0.03304   0.01980  -0.03734
    X4        0.62930   0.00688   0.00000   0.00661   0.01324   0.64254
    Y4        1.09105   0.00734   0.00000   0.00802   0.01629   1.10735
    Z4        0.01060  -0.00530   0.00000  -0.02562  -0.03828  -0.02767
    X5       -0.29233   0.00075   0.00000  -0.02011  -0.01387  -0.30620
    Y5        2.95810  -0.01252   0.00000  -0.04181  -0.03374   2.92436
    Z5       -0.06266   0.00272   0.00000   0.03218   0.01971  -0.04295
    X6        2.71885  -0.01486   0.00000  -0.03560  -0.02899   2.68987
    Y6        1.22105  -0.00579   0.00000  -0.03411  -0.02540   1.19566
    Z6       -0.05893   0.00279   0.00000   0.03144   0.01897  -0.03996
         Item               Value     Threshold  Converged?
 Maximum Force            0.014855     0.000450     NO 
 RMS     Force            0.007733     0.000300     NO 
 Maximum Displacement     0.040642     0.001800     NO 
 RMS     Displacement     0.026680     0.001200     NO 
 Predicted change in Energy=-1.587910D-03
 GradGradGradGradGradGradGradGradGradGradGradGradGradGradGradGradGradGrad

 Unable to Open any file for archive entry.
 1\1\GINC-BHD0014\Force\RwB97XD\6-311G\C2H4\BWEIGHT\11-Jan-2023\0\\# WB
 97XD/6-311G SCF=XQC FORCE nosym pop=full guess=read\\MD Step 1000\\0,1
 \C,-0.33685463,-0.58289462,0.0080068\H,0.22336259,-1.52176678,-0.02834
 845\H,-1.42228415,-0.58446782,-0.03023979\C,0.33301116,0.57736085,0.00
 561159\H,-0.15469417,1.56535953,-0.03315841\H,1.43875499,0.64615423,-0
 .03118261\\Version=ES64L-G16RevC.01\HF=-78.5556349\RMSD=6.716e-09\RMSF
 =7.733e-03\Dipole=0.0034181,0.0092259,-0.0491188\Quadrupole=0.8645916,
 0.8467762,-1.7113678,0.0057323,0.0008362,-0.0030048\PG=C01 [X(C2H4)]\\
 @
 The archive entry for this job was punched.


 IT CANNOT BE MY BEAUTY, FOR I HAVE NONE; AND IT CANNOT BE MY WIT,
 FOR HE HAS NOT ENOUGH TO KNOW THAT I HAVE ANY.
 -- CATHARINE SEDLEY, PUZZLED ABOUT WHY SHE WAS MISTRESS TO JAMES II
 Job cpu time:       0 days  0 hours  0 minutes 10.5 seconds.
 Elapsed time:       0 days  0 hours  0 minutes  3.0 seconds.
 File lengths (MBytes):  RWF=    272 Int=      0 D2E=      0 Chk=     32 Scr=     32
 Normal termination of Gaussian 16 at Wed Jan 11 19:42:35 2023.
