 Entering Gaussian System, Link 0=g16
 Initial command:
 /software/gaussian/g16-c01/avx2/g16/l1.exe "/gpfs/fs2/scratch/bweight/software/many_molecule_many_mode_NAMD/src/NAMD/TEST_NVT/TRAJ/traj-81/G16/GS_NEW/Gau-8793.inp" -scrdir="/gpfs/fs2/scratch/bweight/software/many_molecule_many_mode_NAMD/src/NAMD/TEST_NVT/TRAJ/traj-81/G16/GS_NEW/"
 Entering Link 1 = /software/gaussian/g16-c01/avx2/g16/l1.exe PID=      8794.
  
 Copyright (c) 1988-2019, Gaussian, Inc.  All Rights Reserved.
  
 This is part of the Gaussian(R) 16 program.  It is based on
 the Gaussian(R) 09 system (copyright 2009, Gaussian, Inc.),
 the Gaussian(R) 03 system (copyright 2003, Gaussian, Inc.),
 the Gaussian(R) 98 system (copyright 1998, Gaussian, Inc.),
 the Gaussian(R) 94 system (copyright 1995, Gaussian, Inc.),
 the Gaussian 92(TM) system (copyright 1992, Gaussian, Inc.),
 the Gaussian 90(TM) system (copyright 1990, Gaussian, Inc.),
 the Gaussian 88(TM) system (copyright 1988, Gaussian, Inc.),
 the Gaussian 86(TM) system (copyright 1986, Carnegie Mellon
 University), and the Gaussian 82(TM) system (copyright 1983,
 Carnegie Mellon University). Gaussian is a federally registered
 trademark of Gaussian, Inc.
  
 This software contains proprietary and confidential information,
 including trade secrets, belonging to Gaussian, Inc.
  
 This software is provided under written license and may be
 used, copied, transmitted, or stored only in accord with that
 written license.
  
 The following legend is applicable only to US Government
 contracts under FAR:
  
                    RESTRICTED RIGHTS LEGEND
  
 Use, reproduction and disclosure by the US Government is
 subject to restrictions as set forth in subparagraphs (a)
 and (c) of the Commercial Computer Software - Restricted
 Rights clause in FAR 52.227-19.
  
 Gaussian, Inc.
 340 Quinnipiac St., Bldg. 40, Wallingford CT 06492
  
  
 ---------------------------------------------------------------
 Warning -- This program may not be used in any manner that
 competes with the business of Gaussian, Inc. or will provide
 assistance to any competitor of Gaussian, Inc.  The licensee
 of this program is prohibited from giving any competitor of
 Gaussian, Inc. access to this program.  By using this program,
 the user acknowledges that Gaussian, Inc. is engaged in the
 business of creating and licensing software in the field of
 computational chemistry and represents and warrants to the
 licensee that it is not a competitor of Gaussian, Inc. and that
 it will not use this program in any manner prohibited above.
 ---------------------------------------------------------------
  

 Cite this work as:
 Gaussian 16, Revision C.01,
 M. J. Frisch, G. W. Trucks, H. B. Schlegel, G. E. Scuseria, 
 M. A. Robb, J. R. Cheeseman, G. Scalmani, V. Barone, 
 G. A. Petersson, H. Nakatsuji, X. Li, M. Caricato, A. V. Marenich, 
 J. Bloino, B. G. Janesko, R. Gomperts, B. Mennucci, H. P. Hratchian, 
 J. V. Ortiz, A. F. Izmaylov, J. L. Sonnenberg, D. Williams-Young, 
 F. Ding, F. Lipparini, F. Egidi, J. Goings, B. Peng, A. Petrone, 
 T. Henderson, D. Ranasinghe, V. G. Zakrzewski, J. Gao, N. Rega, 
 G. Zheng, W. Liang, M. Hada, M. Ehara, K. Toyota, R. Fukuda, 
 J. Hasegawa, M. Ishida, T. Nakajima, Y. Honda, O. Kitao, H. Nakai, 
 T. Vreven, K. Throssell, J. A. Montgomery, Jr., J. E. Peralta, 
 F. Ogliaro, M. J. Bearpark, J. J. Heyd, E. N. Brothers, K. N. Kudin, 
 V. N. Staroverov, T. A. Keith, R. Kobayashi, J. Normand, 
 K. Raghavachari, A. P. Rendell, J. C. Burant, S. S. Iyengar, 
 J. Tomasi, M. Cossi, J. M. Millam, M. Klene, C. Adamo, R. Cammi, 
 J. W. Ochterski, R. L. Martin, K. Morokuma, O. Farkas, 
 J. B. Foresman, and D. J. Fox, Gaussian, Inc., Wallingford CT, 2019.
 
 ******************************************
 Gaussian 16:  ES64L-G16RevC.01  3-Jul-2019
                11-Jan-2023 
 ******************************************
 %oldchk=../GS_OLD/geometry.chk
 %chk=geometry.chk
 %nprocshared=4
 Will use up to    4 processors via shared memory.
 %mem=5GB
 Copying data from "../GS_OLD/geometry.chk" to current chk file "geometry.chk"
 IOpt=  2 FromEx=T IUOpen= 4 IOptOp= 5 NList=   0 IFRang= 0 IUIn= 4 IUOut= 2.
 -------------------------------------------------------
 # WB97XD/6-311G SCF=XQC FORCE nosym pop=full guess=read
 -------------------------------------------------------
 1/10=7,30=1,38=1/1,3;
 2/12=2,15=1,17=6,18=5,40=1/2;
 3/5=4,6=6,11=2,25=1,30=1,71=1,74=-58,116=-2/1,2,3;
 4/5=1/1;
 5/5=2,8=3,13=1,38=6/2,8;
 6/7=3,28=1/1;
 7/29=1,30=1/1,2,3,16;
 1/10=7,30=1/3;
 99//99;
 -----------
 MD Step 999
 -----------
 Symbolic Z-matrix:
 Charge =  0 Multiplicity = 1
 C                    -0.3362   -0.5822    0.00781 
 H                     0.21738  -1.5258   -0.02821 
 H                    -1.41918  -0.5806   -0.02882 
 C                     0.33244   0.57571   0.00583 
 H                    -0.16069   1.57032  -0.03248 
 H                     1.44882   0.65498  -0.03159 
 

 GradGradGradGradGradGradGradGradGradGradGradGradGradGradGradGradGradGrad
 Berny optimization.
 Initialization pass.
 Trust Radius=3.00D-01 FncErr=1.00D-07 GrdErr=1.00D-07 EigMax=2.50D+02 EigMin=1.00D-04
 Number of steps in this run=      2 maximum allowed number of steps=      2.
 GradGradGradGradGradGradGradGradGradGradGradGradGradGradGradGradGradGrad

                          Input orientation:                          
 ---------------------------------------------------------------------
 Center     Atomic      Atomic             Coordinates (Angstroms)
 Number     Number       Type             X           Y           Z
 ---------------------------------------------------------------------
      1          6           0       -0.336201   -0.582203    0.007813
      2          1           0        0.217377   -1.525802   -0.028209
      3          1           0       -1.419182   -0.580602   -0.028821
      4          6           0        0.332439    0.575708    0.005833
      5          1           0       -0.160687    1.570315   -0.032481
      6          1           0        1.448816    0.654977   -0.031594
 ---------------------------------------------------------------------
                    Distance matrix (angstroms):
                    1          2          3          4          5
     1  C    0.000000
     2  H    1.094590   0.000000
     3  H    1.083602   1.889902   0.000000
     4  C    1.337102   2.104933   2.099150   0.000000
     5  H    2.160038   3.119118   2.492041   1.110803   0.000000
     6  H    2.172200   2.504446   3.122831   1.119813   1.851578
                    6
     6  H    0.000000
 Symmetry turned off by external request.
 Stoichiometry    C2H4
 Framework group  C1[X(C2H4)]
 Deg. of freedom    12
 Full point group                 C1      NOp   1
 Rotational constants (GHZ):         143.0793486          29.6807974          24.5928588
 Standard basis: 6-311G (5D, 7F)
    38 basis functions,    72 primitive gaussians,    38 cartesian basis functions
     8 alpha electrons        8 beta electrons
       nuclear repulsion energy        33.0530896760 Hartrees.
 NAtoms=    6 NActive=    6 NUniq=    6 SFac= 1.00D+00 NAtFMM=   60 NAOKFM=F Big=F
 Integral buffers will be    131072 words long.
 Raffenetti 2 integral format.
 Two-electron integral symmetry is turned off.
 Nuclear repulsion after empirical dispersion term =       33.0522478969 Hartrees.
 One-electron integrals computed using PRISM.
 NBasis=    38 RedAO= T EigKep=  6.41D-03  NBF=    38
 NBsUse=    38 1.00D-06 EigRej= -1.00D+00 NBFU=    38
 Initial guess from the checkpoint file:  "geometry.chk"
 B after Tr=    -0.000205   -0.000289   -0.000400
         Rot=    1.000000    0.000001    0.000001    0.000006 Ang=   0.00 deg.
 Keep R1 ints in memory in canonical form, NReq=4036876.
 Requested convergence on RMS density matrix=1.00D-08 within  32 cycles.
 Requested convergence on MAX density matrix=1.00D-06.
 Requested convergence on             energy=1.00D-06.
 No special actions if energy rises.
 SCF Done:  E(RwB97XD) =  -78.5550677465     A.U. after    8 cycles
            NFock=  8  Conv=0.49D-08     -V/T= 2.0053
 QCSCF skips out because SCF is already converged.

 **********************************************************************

            Population analysis using the SCF Density.

 **********************************************************************

 Alpha  occ. eigenvalues --  -10.29152 -10.28767  -0.86399  -0.67161  -0.55912
 Alpha  occ. eigenvalues --   -0.50956  -0.43551  -0.35714
 Alpha virt. eigenvalues --    0.07983   0.14067   0.16413   0.16971   0.24062
 Alpha virt. eigenvalues --    0.37315   0.39229   0.40007   0.46266   0.48837
 Alpha virt. eigenvalues --    0.49357   0.59102   0.66478   0.69028   0.77138
 Alpha virt. eigenvalues --    0.77618   0.84005   0.95281   2.23159   2.28991
 Alpha virt. eigenvalues --    2.33300   2.40552   2.67121   2.81700   2.87847
 Alpha virt. eigenvalues --    2.95091   3.14097   3.31633  23.35099  23.70631
     Molecular Orbital Coefficients:
                           1         2         3         4         5
                           O         O         O         O         O
     Eigenvalues --   -10.29152 -10.28767  -0.86399  -0.67161  -0.55912
   1 1   C  1S          0.06517   0.55961  -0.08878   0.06630  -0.00043
   2        2S          0.05384   0.46056  -0.14034   0.10618  -0.00071
   3        2PX         0.00016   0.00000   0.02590   0.03666   0.13939
   4        2PY         0.00028   0.00001   0.04638   0.06048  -0.07569
   5        2PZ         0.00000  -0.00001  -0.00152   0.00226   0.00020
   6        3S          0.00082   0.01464   0.37644  -0.28968   0.00200
   7        3PX        -0.00063   0.00039   0.03429   0.05870   0.21849
   8        3PY        -0.00109   0.00070   0.06119   0.09785  -0.11936
   9        3PZ        -0.00001  -0.00004  -0.00255   0.00401   0.00029
  10        4S          0.00423  -0.01448   0.19223  -0.22491   0.00181
  11        4PX         0.00159  -0.00144   0.00463   0.02327   0.11252
  12        4PY         0.00275  -0.00251   0.00849   0.04033  -0.06232
  13        4PZ        -0.00000   0.00010  -0.00088   0.00201   0.00014
  14 2   H  1S         -0.00004  -0.00007   0.05303  -0.08759   0.10460
  15        2S         -0.00030   0.00008   0.05425  -0.10540   0.13233
  16        3S          0.00073   0.00174  -0.00180  -0.01517   0.04286
  17 3   H  1S         -0.00005  -0.00008   0.05449  -0.09062  -0.10727
  18        2S         -0.00031   0.00007   0.05514  -0.10838  -0.13487
  19        3S          0.00074   0.00178  -0.00181  -0.01605  -0.04368
  20 4   C  1S          0.55963  -0.06536  -0.08651  -0.06875  -0.00030
  21        2S          0.46060  -0.05359  -0.13658  -0.11027  -0.00048
  22        2PX        -0.00001  -0.00017  -0.02813   0.03709   0.11599
  23        2PY        -0.00001  -0.00029  -0.04736   0.06637  -0.07172
  24        2PZ        -0.00000   0.00000  -0.00118  -0.00235   0.00021
  25        3S          0.01421  -0.00256   0.36591   0.30137   0.00134
  26        3PX        -0.00026   0.00071  -0.03517   0.06040   0.18170
  27        3PY        -0.00043   0.00123  -0.05897   0.10747  -0.11148
  28        3PZ        -0.00004  -0.00001  -0.00206  -0.00426   0.00032
  29        4S         -0.01273   0.00759   0.18836   0.24037   0.00032
  30        4PX         0.00102  -0.00185  -0.00562   0.02673   0.10089
  31        4PY         0.00171  -0.00322  -0.00924   0.04596  -0.06089
  32        4PZ         0.00008  -0.00001  -0.00087  -0.00222   0.00016
  33 5   H  1S         -0.00005  -0.00004   0.04889   0.09335  -0.08699
  34        2S          0.00000  -0.00032   0.05020   0.11194  -0.11007
  35        3S          0.00177   0.00026  -0.00109   0.01690  -0.03541
  36 6   H  1S         -0.00004  -0.00005   0.04760   0.09158   0.08333
  37        2S         -0.00001  -0.00032   0.04947   0.11028   0.10581
  38        3S          0.00172   0.00026  -0.00118   0.01631   0.03428
                           6         7         8         9        10
                           O         O         O         V         V
     Eigenvalues --    -0.50956  -0.43551  -0.35714   0.07983   0.14067
   1 1   C  1S         -0.00338   0.00012  -0.00116   0.00314  -0.03199
   2        2S         -0.00504   0.00021  -0.00189   0.00522  -0.05128
   3        2PX         0.09474  -0.10881  -0.00389   0.00160  -0.03199
   4        2PY         0.16788   0.06461  -0.00668   0.00275  -0.06330
   5        2PZ         0.00589   0.00004   0.17941  -0.18883  -0.00250
   6        3S          0.01951  -0.00038   0.00552  -0.01582   0.11080
   7        3PX         0.13750  -0.17344  -0.00550   0.00242  -0.03827
   8        3PY         0.24506   0.10363  -0.00943   0.00410  -0.07867
   9        3PZ         0.00933   0.00010   0.28872  -0.27788  -0.00405
  10        4S         -0.05371  -0.00274   0.00799  -0.01732   1.19329
  11        4PX         0.06929  -0.10873  -0.00450   0.01414  -0.19265
  12        4PY         0.12431   0.06509  -0.00775   0.02435  -0.37236
  13        4PZ         0.00529   0.00011   0.26687  -0.69493  -0.01470
  14 2   H  1S         -0.08071  -0.11319   0.00019   0.00490  -0.01596
  15        2S         -0.11164  -0.17465   0.00236   0.00774  -0.04585
  16        3S         -0.04172  -0.08081   0.00142   0.02031  -0.80394
  17 3   H  1S         -0.07909   0.11126   0.00009   0.00491  -0.01277
  18        2S         -0.10879   0.17079   0.00221   0.00771  -0.03823
  19        3S         -0.04036   0.07870   0.00135   0.01984  -0.75281
  20 4   C  1S         -0.00856  -0.00041  -0.00093  -0.00310  -0.03756
  21        2S         -0.01339  -0.00068  -0.00151  -0.00512  -0.06035
  22        2PX        -0.09742   0.12629   0.00384   0.00205   0.04093
  23        2PY        -0.16240  -0.07414   0.00703   0.00366   0.06318
  24        2PZ         0.00620   0.00023   0.17918   0.18949  -0.00385
  25        3S          0.04331   0.00189   0.00448   0.01531   0.13383
  26        3PX        -0.14422   0.20277   0.00535   0.00312   0.04987
  27        3PY        -0.23896  -0.11816   0.00986   0.00560   0.07481
  28        3PZ         0.00982   0.00034   0.28649   0.27754  -0.00581
  29        4S         -0.02970   0.00285   0.00762   0.01837   1.26582
  30        4PX        -0.07540   0.13101   0.00411   0.01550   0.26599
  31        4PY        -0.12364  -0.07600   0.00770   0.02714   0.42548
  32        4PZ         0.00570   0.00021   0.26703   0.69644  -0.02254
  33 5   H  1S         -0.07485  -0.12588   0.00029  -0.00467  -0.01355
  34        2S         -0.10252  -0.19710   0.00251  -0.00787  -0.04027
  35        3S         -0.03831  -0.09298   0.00139  -0.02088  -0.84702
  36 6   H  1S         -0.07976   0.12532   0.00018  -0.00467  -0.01663
  37        2S         -0.10959   0.19730   0.00234  -0.00799  -0.04768
  38        3S         -0.04108   0.09327   0.00127  -0.02137  -0.89977
                          11        12        13        14        15
                           V         V         V         V         V
     Eigenvalues --     0.16413   0.16971   0.24062   0.37315   0.39229
   1 1   C  1S          0.00128  -0.04637   0.00015   0.00922   0.00044
   2        2S          0.00208  -0.07556   0.00023   0.01242   0.00055
   3        2PX         0.09553  -0.01922   0.10060  -0.03567  -0.02146
   4        2PY        -0.05325  -0.03858  -0.05751  -0.06412   0.01122
   5        2PZ         0.00016  -0.00780   0.00001  -0.00534  -0.00020
   6        3S         -0.00459   0.17100   0.00024   0.03558   0.00402
   7        3PX         0.13705  -0.01030   0.10608  -0.04337  -0.10002
   8        3PY        -0.07758  -0.02559  -0.06154  -0.08287   0.05649
   9        3PZ         0.00022  -0.01083  -0.00004  -0.01097  -0.00030
  10        4S         -0.05367   1.46969  -0.02919  -2.54106  -0.13107
  11        4PX         0.57784  -0.11257   1.16913  -1.55320  -0.54103
  12        4PY        -0.31420  -0.21991  -0.67491  -2.70229   0.15330
  13        4PZ         0.00116  -0.05095   0.00067  -0.04932  -0.00272
  14 2   H  1S         -0.02937  -0.02560   0.01452  -0.05894   0.07414
  15        2S         -0.08350  -0.01923  -0.02044  -0.67284   0.74869
  16        3S         -1.02186  -1.04061  -1.55274  -0.30310  -0.29778
  17 3   H  1S          0.02906  -0.02491  -0.01631  -0.05257  -0.07598
  18        2S          0.08280  -0.01960   0.01496  -0.61926  -0.76895
  19        3S          1.09216  -1.01877   1.58670  -0.36993   0.24311
  20 4   C  1S          0.00068   0.04152  -0.00019  -0.02019  -0.00018
  21        2S          0.00108   0.06759  -0.00032  -0.03330  -0.00029
  22        2PX         0.10365  -0.02226  -0.10023  -0.04023  -0.03289
  23        2PY        -0.06140  -0.03727   0.05748  -0.07258   0.01333
  24        2PZ         0.00012   0.00751  -0.00002   0.00382   0.00032
  25        3S         -0.00198  -0.15022   0.00039   0.04745   0.00093
  26        3PX         0.14903  -0.01724  -0.11481  -0.09252  -0.11259
  27        3PY        -0.08766  -0.02781   0.06458  -0.16920   0.05232
  28        3PZ         0.00016   0.01036   0.00000   0.00456   0.00063
  29        4S         -0.03858  -1.29938   0.02350   3.28261   0.13821
  30        4PX         0.54187  -0.11136  -1.11568  -1.13905  -0.51143
  31        4PY        -0.32644  -0.18957   0.64061  -2.00720   0.14500
  32        4PZ         0.00080   0.04853  -0.00076   0.03960   0.00216
  33 5   H  1S          0.03175   0.02550   0.00472   0.00835  -0.08210
  34        2S          0.06809   0.02331  -0.03559   0.04247  -0.81314
  35        3S          1.06424   0.91695  -1.50696   0.44464   0.50223
  36 6   H  1S         -0.03254   0.02565  -0.00348   0.00262   0.08800
  37        2S         -0.06951   0.02205   0.03734  -0.00551   0.88158
  38        3S         -1.01289   0.91207   1.48209   0.46300  -0.49245
                          16        17        18        19        20
                           V         V         V         V         V
     Eigenvalues --     0.40007   0.46266   0.48837   0.49357   0.59102
   1 1   C  1S         -0.01855   0.01474  -0.04538  -0.00061  -0.00061
   2        2S         -0.03245   0.03266  -0.07537  -0.00069  -0.00108
   3        2PX         0.02828  -0.06256   0.00899   0.00132   0.00235
   4        2PY         0.05039  -0.10721   0.00975   0.00188   0.00354
   5        2PZ         0.00052  -0.00058   0.00665  -0.15138  -0.19271
   6        3S          0.07195  -0.33893   0.06982  -0.01093  -0.00114
   7        3PX         0.10629  -0.24039  -0.04721  -0.00029   0.00779
   8        3PY         0.19338  -0.41062  -0.09350  -0.00163   0.01195
   9        3PZ        -0.00416  -0.00535   0.02965  -0.62679  -0.68585
  10        4S          2.79756  -0.03820   3.12647   0.11951   0.08110
  11        4PX         0.30749   0.18193   0.82022   0.03764   0.02596
  12        4PY         0.54051   0.35454   1.43684   0.06753   0.04289
  13        4PZ        -0.00057   0.00520  -0.10536   0.68239   1.24186
  14 2   H  1S         -0.02664  -0.02906  -0.07768  -0.00352  -0.00195
  15        2S         -0.53834  -0.26769  -0.92683  -0.03456  -0.01520
  16        3S          0.32287   0.02617   0.64458   0.03853   0.02674
  17 3   H  1S         -0.03041  -0.03247  -0.07522  -0.00343  -0.00182
  18        2S         -0.56783  -0.30892  -0.90484  -0.03412  -0.01265
  19        3S          0.32669   0.03240   0.60791   0.03698   0.02622
  20 4   C  1S         -0.00033  -0.00562   0.05106   0.00382   0.00081
  21        2S         -0.00413  -0.00196   0.08935   0.00691   0.00152
  22        2PX         0.01013   0.05267   0.02909   0.00022   0.00230
  23        2PY         0.01878   0.09200   0.05398   0.00040   0.00452
  24        2PZ        -0.00455  -0.00229   0.00681  -0.15286   0.19222
  25        3S          0.07975  -0.27134  -0.25313  -0.02685  -0.00322
  26        3PX        -0.03970   0.22843   0.06683   0.00059   0.00819
  27        3PY        -0.06342   0.40209   0.12201   0.00070   0.01575
  28        3PZ        -0.01264  -0.00891   0.02524  -0.63171   0.68169
  29        4S         -1.01621   0.90992  -3.03185  -0.14151  -0.06954
  30        4PX         1.30157  -0.38769   0.60287   0.01974   0.02449
  31        4PY         2.32786  -0.63375   1.01332   0.03247   0.04337
  32        4PZ        -0.03851  -0.02103   0.03537   0.69644  -1.23725
  33 5   H  1S         -0.04573  -0.06860   0.06042   0.00302   0.00177
  34        2S         -0.83004  -0.70260   0.76588   0.04463   0.00564
  35        3S         -0.21051   0.31452  -0.53446  -0.01404  -0.02614
  36 6   H  1S         -0.04148  -0.06633   0.06128   0.00311   0.00186
  37        2S         -0.77915  -0.66982   0.76394   0.04454   0.00708
  38        3S         -0.21455   0.32635  -0.55946  -0.01592  -0.02663
                          21        22        23        24        25
                           V         V         V         V         V
     Eigenvalues --     0.66478   0.69028   0.77138   0.77618   0.84005
   1 1   C  1S          0.00070  -0.00035   0.05193   0.07270   0.00084
   2        2S          0.00142  -0.00083   0.10951   0.15500   0.00186
   3        2PX        -0.12103   0.20542  -0.02464   0.11317  -0.01086
   4        2PY         0.07059  -0.12262  -0.04270   0.18598   0.01192
   5        2PZ        -0.00001   0.00019   0.00085   0.00556   0.00019
   6        3S         -0.01029   0.01340  -0.73776  -1.34224  -0.01720
   7        3PX        -0.57564   0.72960  -0.16998   0.44175  -0.22977
   8        3PY         0.33306  -0.43479  -0.29566   0.71953   0.15510
   9        3PZ        -0.00018   0.00078   0.00323   0.01942   0.00079
  10        4S          0.01442  -0.07985   0.70797   2.46115  -0.07458
  11        4PX         1.05536  -0.81796   0.13183  -0.72109   4.50180
  12        4PY        -0.61507   0.47958   0.18913  -1.02099  -2.61383
  13        4PZ         0.00013   0.00094   0.01016  -0.06303   0.00243
  14 2   H  1S          0.02020  -0.06030   0.01087   0.03244  -0.02724
  15        2S          0.09470  -0.65853   0.08557   0.08743  -1.57534
  16        3S         -0.98832   1.15026  -0.10970  -1.11613  -1.23585
  17 3   H  1S         -0.01964   0.06006   0.01062   0.03319   0.02972
  18        2S         -0.10289   0.69302   0.09949   0.06824   1.60992
  19        3S          0.97995  -1.12788  -0.10285  -1.23217   1.23905
  20 4   C  1S          0.00086  -0.00056   0.08426   0.03025   0.00059
  21        2S          0.00175  -0.00105   0.17934   0.06368   0.00126
  22        2PX        -0.16156  -0.17589  -0.09638   0.05376   0.01147
  23        2PY         0.09214   0.09806  -0.17305   0.09775  -0.00175
  24        2PZ        -0.00008  -0.00023   0.00578  -0.00129  -0.00018
  25        3S         -0.01267   0.00094  -1.49755  -0.36138  -0.00901
  26        3PX        -0.71543  -0.58109  -0.35138   0.28476   0.24423
  27        3PY         0.41031   0.32170  -0.63376   0.51434  -0.11478
  28        3PZ        -0.00043  -0.00081   0.02043  -0.00493  -0.00064
  29        4S          0.01492   0.05451   2.71106   0.09275   0.05935
  30        4PX         1.30797   0.64989   0.52383  -0.27840  -4.15121
  31        4PY        -0.74558  -0.37036   0.99157  -0.66697   2.33016
  32        4PZ         0.00069  -0.00056  -0.05986   0.02983  -0.00203
  33 5   H  1S         -0.02823  -0.05381   0.03498   0.00255  -0.02190
  34        2S         -0.17446  -0.54879   0.06569   0.06793  -1.38811
  35        3S          1.15368   0.91230  -1.14137   0.30069  -1.08020
  36 6   H  1S          0.02862   0.05345   0.03460   0.00335   0.02225
  37        2S          0.16666   0.51649   0.06244   0.02715   1.37694
  38        3S         -1.15621  -0.91800  -1.08597   0.24329   1.08600
                          26        27        28        29        30
                           V         V         V         V         V
     Eigenvalues --     0.95281   2.23159   2.28991   2.33300   2.40552
   1 1   C  1S          0.09591  -0.01034  -0.01473   0.00030  -0.00042
   2        2S          0.19935   0.00132  -0.01500   0.00077  -0.00041
   3        2PX        -0.09151  -0.07614  -0.13358   0.34481  -0.40701
   4        2PY        -0.15868  -0.14142  -0.23099  -0.19713   0.23434
   5        2PZ         0.00020  -0.01553  -0.02078  -0.00016  -0.00063
   6        3S         -1.54409  -0.18689  -0.03496  -0.00223  -0.00447
   7        3PX        -0.23485   0.07000   0.21078  -0.41026   0.56728
   8        3PY        -0.40085   0.14291   0.37696   0.23639  -0.32995
   9        3PZ        -0.00289   0.01543   0.02593   0.00028   0.00071
  10        4S          5.71677  -0.11387  -0.88958   0.00094  -0.03183
  11        4PX         1.19291   0.05641  -0.19451  -0.05247   0.97137
  12        4PY         2.00119   0.07386  -0.35483   0.02389  -0.54976
  13        4PZ        -0.02144   0.00360   0.00956  -0.00028   0.00128
  14 2   H  1S          0.01516  -0.70679  -0.79538  -0.69951   0.66106
  15        2S         -0.28455   1.00424   1.19318   1.08001  -1.47207
  16        3S         -0.09073  -0.29771  -0.47266  -0.46060   0.36896
  17 3   H  1S          0.01527  -0.70102  -0.79405   0.68871  -0.68118
  18        2S         -0.26203   0.99780   1.19262  -1.06787   1.51317
  19        3S         -0.08104  -0.27764  -0.46067   0.44961  -0.36334
  20 4   C  1S         -0.09383  -0.00980   0.01175   0.00040   0.00026
  21        2S         -0.19463   0.00100   0.01143   0.00059   0.00040
  22        2PX        -0.09293   0.13606  -0.12231   0.30598   0.41578
  23        2PY        -0.16023   0.23942  -0.20761  -0.17609  -0.23547
  24        2PZ         0.00036  -0.01695   0.02039   0.00029   0.00026
  25        3S          1.50410  -0.16886   0.01890  -0.00029   0.00016
  26        3PX        -0.22848  -0.17671   0.21224  -0.38743  -0.58471
  27        3PY        -0.39893  -0.30641   0.35367   0.22037   0.33009
  28        3PZ         0.00410   0.01846  -0.02613  -0.00030  -0.00038
  29        4S         -5.68579  -0.15907   0.88145   0.01284   0.01797
  30        4PX         1.11640  -0.01028  -0.19508   0.11706  -0.83574
  31        4PY         1.97885  -0.02768  -0.32216  -0.06624   0.47960
  32        4PZ         0.01452   0.00508  -0.00713  -0.00015  -0.00105
  33 5   H  1S         -0.01827  -0.79073   0.67402   0.71159   0.67900
  34        2S          0.29526   1.14908  -1.02801  -1.03157  -1.43584
  35        3S          0.05871  -0.36235   0.40471   0.52020   0.43360
  36 6   H  1S         -0.01837  -0.78179   0.69334  -0.70223  -0.67818
  37        2S          0.31165   1.13302  -1.05386   1.01428   1.42800
  38        3S          0.05932  -0.36179   0.42617  -0.51838  -0.43927
                          31        32        33        34        35
                           V         V         V         V         V
     Eigenvalues --     2.67121   2.81700   2.87847   2.95091   3.14097
   1 1   C  1S          0.00057   0.00289  -0.01312   0.00006  -0.00974
   2        2S          0.00043   0.00833  -0.04354  -0.00005  -0.02989
   3        2PX         0.00535   0.08380  -0.47589  -0.72284   0.44425
   4        2PY         0.00871   0.14692  -0.84893   0.40372   0.77972
   5        2PZ        -0.92279  -0.92819  -0.15894  -0.00084   0.00748
   6        3S         -0.00160  -0.06887   0.38263   0.00198   0.25106
   7        3PX        -0.00352  -0.14495   0.83933   0.87070  -0.42504
   8        3PY        -0.00582  -0.25219   1.47592  -0.47567  -0.74602
   9        3PZ         0.93737   1.13432   0.19962   0.00120  -0.00963
  10        4S          0.01444   0.16063  -0.86732  -0.00946  -0.49083
  11        4PX        -0.00278   0.11622  -0.71379  -0.65834   0.21306
  12        4PY        -0.00392   0.20272  -1.26117   0.35293   0.36998
  13        4PZ        -0.33715  -0.61329  -0.12667  -0.00100   0.00559
  14 2   H  1S          0.01391  -0.02218   0.26064  -0.36827  -0.21424
  15        2S         -0.01580   0.01348  -0.21681   0.37740   0.16156
  16        3S         -0.00368   0.04690  -0.29808   0.27703   0.05790
  17 3   H  1S          0.01402  -0.02107   0.24965   0.37031  -0.21210
  18        2S         -0.01607   0.01133  -0.19668  -0.37498   0.16023
  19        3S         -0.00423   0.04783  -0.30237  -0.29243   0.06220
  20 4   C  1S          0.00059  -0.00285   0.01374   0.00054  -0.00690
  21        2S          0.00058  -0.00887   0.04832   0.00124  -0.02208
  22        2PX        -0.00888   0.07312  -0.40042  -0.80987  -0.50875
  23        2PY        -0.01598   0.13125  -0.71644   0.45422  -0.89520
  24        2PZ        -0.92655   0.92338   0.16300   0.00022   0.01542
  25        3S         -0.00339   0.07640  -0.43495  -0.00953   0.19270
  26        3PX         0.00948  -0.13378   0.75874   0.96154   0.54784
  27        3PY         0.01680  -0.23788   1.34632  -0.53220   0.97037
  28        3PZ         0.94242  -1.12942  -0.20532  -0.00023  -0.01941
  29        4S          0.01839  -0.16537   0.90789   0.02644  -0.36784
  30        4PX        -0.00146   0.11419  -0.70299  -0.69966  -0.33817
  31        4PY        -0.00292   0.20138  -1.23265   0.38028  -0.59794
  32        4PZ        -0.33981   0.61092   0.13121   0.00010   0.01537
  33 5   H  1S          0.01329   0.03168  -0.29482   0.42501  -0.26355
  34        2S         -0.01656  -0.02610   0.27035  -0.43872   0.20788
  35        3S         -0.00129  -0.04320   0.27738  -0.23706   0.12512
  36 6   H  1S          0.01347   0.03231  -0.29536  -0.43213  -0.25669
  37        2S         -0.01713  -0.02756   0.27755   0.44573   0.20395
  38        3S         -0.00077  -0.04047   0.26099   0.23698   0.12231
                          36        37        38
                           V         V         V
     Eigenvalues --     3.31633  23.35099  23.70631
   1 1   C  1S         -0.00045  -1.40819  -1.45794
   2        2S         -0.00069   1.50173   1.57660
   3        2PX         0.79152  -0.00658   0.01198
   4        2PY        -0.44658  -0.01079   0.02115
   5        2PZ         0.00077  -0.00064  -0.00029
   6        3S          0.00162  -0.29435  -0.40123
   7        3PX        -1.13074   0.02444  -0.05559
   8        3PY         0.63547   0.04064  -0.09709
   9        3PZ        -0.00120   0.00180   0.00086
  10        4S         -0.02365   0.27087   0.77185
  11        4PX         1.96995  -0.02697   0.13268
  12        4PY        -1.11355  -0.04551   0.23070
  13        4PZ         0.00198  -0.00299  -0.00353
  14 2   H  1S          0.56841   0.01345   0.00751
  15        2S         -0.88082   0.00759  -0.01479
  16        3S         -0.46982  -0.08471  -0.03945
  17 3   H  1S         -0.57857   0.01505   0.00880
  18        2S          0.89516   0.00708  -0.01545
  19        3S          0.49025  -0.08654  -0.04035
  20 4   C  1S          0.00023  -1.45311   1.41297
  21        2S          0.00011   1.54981  -1.52814
  22        2PX        -0.70298   0.00580   0.01279
  23        2PY         0.40061   0.01052   0.02166
  24        2PZ        -0.00067  -0.00062   0.00015
  25        3S          0.00175  -0.30418   0.38945
  26        3PX         1.00021  -0.02162  -0.05705
  27        3PY        -0.57616  -0.03866  -0.09777
  28        3PZ         0.00101   0.00179  -0.00037
  29        4S          0.00258   0.28183  -0.75955
  30        4PX        -1.75688   0.02213   0.13244
  31        4PY         1.01236   0.04097   0.22728
  32        4PZ        -0.00164  -0.00294   0.00252
  33 5   H  1S          0.47418   0.01243  -0.00389
  34        2S         -0.73876   0.00846   0.01343
  35        3S         -0.41586  -0.08226   0.03695
  36 6   H  1S         -0.46880   0.01108  -0.00266
  37        2S          0.73330   0.00973   0.01246
  38        3S          0.40873  -0.08068   0.03564
     Density Matrix:
                           1         2         3         4         5
   1 1   C  1S          0.65940
   2        2S          0.56151   0.49202
   3        2PX        -0.00049  -0.00065   0.08455
   4        2PY        -0.00120  -0.00166   0.00354   0.08788
   5        2PZ         0.00010   0.00016  -0.00015  -0.00031   0.06446
   6        3S         -0.08891  -0.15383   0.00256   0.00601  -0.00024
   7        3PX         0.00090   0.00138   0.13083   0.00104  -0.00012
   8        3PY         0.00125   0.00191   0.00103   0.13138  -0.00028
   9        3PZ         0.00020   0.00034  -0.00026  -0.00050   0.10374
  10        4S         -0.07926  -0.11409  -0.01567  -0.02814   0.00063
  11        4PX         0.00028   0.00160   0.07014  -0.00452  -0.00067
  12        4PY         0.00064   0.00307  -0.00453   0.06535  -0.00118
  13        4PZ        -0.00013  -0.00030  -0.00096  -0.00163   0.09583
  14 2   H  1S         -0.02068  -0.03294   0.03482  -0.06324  -0.00141
  15        2S         -0.02296  -0.03671   0.04881  -0.08784  -0.00107
  16        3S          0.00057  -0.00072   0.02041  -0.03296  -0.00003
  17 3   H  1S         -0.02113  -0.03362  -0.07292  -0.00185  -0.00151
  18        2S         -0.02323  -0.03710  -0.10049  -0.00207  -0.00119
  19        3S          0.00061  -0.00069  -0.03823   0.00110  -0.00007
  20 4   C  1S          0.00609   0.00982  -0.01095  -0.01890  -0.00048
  21        2S          0.00978   0.01529  -0.01752  -0.03024  -0.00078
  22        2PX         0.01031   0.01647  -0.01237  -0.03212   0.00054
  23        2PY         0.01801   0.02880  -0.03227  -0.04971   0.00102
  24        2PZ        -0.00056  -0.00091  -0.00044  -0.00071   0.06436
  25        3S         -0.02632  -0.03998   0.04918   0.08493   0.00236
  26        3PX         0.01587   0.02459  -0.01824  -0.04575   0.00069
  27        3PY         0.02771   0.04294  -0.04590  -0.07123   0.00133
  28        3PZ        -0.00095  -0.00152  -0.00077  -0.00124   0.10290
  29        4S          0.00544   0.00406   0.02116   0.03679   0.00289
  30        4PX         0.00304   0.00631  -0.01304  -0.02100   0.00078
  31        4PY         0.00520   0.01084  -0.02103  -0.03752   0.00151
  32        4PZ        -0.00081  -0.00130  -0.00120  -0.00200   0.09588
  33 5   H  1S          0.00419   0.00688  -0.00167  -0.01241  -0.00055
  34        2S          0.00631   0.01049   0.00357  -0.02506  -0.00002
  35        3S          0.00322   0.00471   0.00428  -0.01759   0.00010
  36 6   H  1S          0.00413   0.00678  -0.00998  -0.00771  -0.00056
  37        2S          0.00617   0.01027  -0.02358  -0.00942  -0.00005
  38        3S          0.00315   0.00462  -0.01740  -0.00508   0.00007
                           6         7         8         9        10
   6        3S          0.45250
   7        3PX        -0.00187   0.20275
   8        3PY        -0.00171  -0.00492   0.19689
   9        3PZ        -0.00069  -0.00022  -0.00045   0.16694
  10        4S          0.27261  -0.02636  -0.04800   0.00083   0.18145
  11        4PX        -0.00684   0.10903  -0.01024  -0.00110  -0.01514
  12        4PY        -0.01258  -0.01023   0.09836  -0.00190  -0.02885
  13        4PZ         0.00133  -0.00128  -0.00217   0.15422   0.00245
  14 2   H  1S          0.08803   0.05613  -0.09864  -0.00233   0.06946
  15        2S          0.09825   0.07902  -0.13654  -0.00180   0.08173
  16        3S          0.00611   0.03337  -0.05064  -0.00006   0.01119
  17 3   H  1S          0.08993  -0.11412  -0.00117  -0.00247   0.06922
  18        2S          0.09941  -0.15706  -0.00023  -0.00195   0.08025
  19        3S          0.00620  -0.05951   0.00357  -0.00011   0.01025
  20 4   C  1S         -0.02664  -0.01709  -0.02954  -0.00082   0.00520
  21        2S         -0.04029  -0.02658  -0.04593  -0.00132   0.00396
  22        2PX        -0.04606  -0.01753  -0.04552   0.00093  -0.01724
  23        2PY        -0.08061  -0.04582  -0.07078   0.00175  -0.03035
  24        2PZ         0.00269  -0.00061  -0.00095   0.10357   0.00280
  25        3S          0.10258   0.07225   0.12494   0.00395   0.00072
  26        3PX        -0.06645  -0.02598  -0.06462   0.00121  -0.02559
  27        3PY        -0.11620  -0.06498  -0.10136   0.00231  -0.04498
  28        3PZ         0.00447  -0.00107  -0.00168   0.16559   0.00465
  29        4S          0.00168   0.03206   0.05595   0.00482  -0.03274
  30        4PX        -0.02236  -0.01939  -0.02942   0.00130  -0.00631
  31        4PY        -0.03860  -0.02957  -0.05410   0.00250  -0.01052
  32        4PZ         0.00381  -0.00169  -0.00278   0.15429   0.00432
  33 5   H  1S         -0.02044  -0.00062  -0.01776  -0.00081  -0.01477
  34        2S         -0.03134   0.00864  -0.03681   0.00008  -0.01931
  35        3S         -0.01215   0.00814  -0.02645   0.00019  -0.00350
  36 6   H  1S         -0.02009  -0.01498  -0.00926  -0.00082  -0.01471
  37        2S         -0.03064  -0.03602  -0.01049   0.00004  -0.01947
  38        3S         -0.01185  -0.02685  -0.00596   0.00014  -0.00374
                          11        12        13        14        15
  11        4PX         0.05974
  12        4PY        -0.00891   0.05069
  13        4PZ        -0.00157  -0.00268   0.14250
  14 2   H  1S          0.03338  -0.05401  -0.00120   0.08151
  15        2S          0.04786  -0.07461  -0.00044   0.10947   0.14907
  16        3S          0.02070  -0.02752   0.00025   0.03646   0.05190
  17 3   H  1S         -0.06300   0.00180  -0.00126  -0.01321  -0.02458
  18        2S         -0.08712   0.00415  -0.00051  -0.02448  -0.04222
  19        3S         -0.03332   0.00430   0.00023  -0.01782  -0.02685
  20 4   C  1S         -0.00319  -0.00574  -0.00072   0.00424   0.00673
  21        2S         -0.00658  -0.01175  -0.00116   0.00702   0.01123
  22        2PX        -0.01343  -0.01978   0.00128   0.00192  -0.00251
  23        2PY        -0.01993  -0.03664   0.00235   0.01135   0.02408
  24        2PZ        -0.00087  -0.00144   0.09569  -0.00066  -0.00020
  25        3S          0.02332   0.04139   0.00342  -0.02112  -0.03379
  26        3PX        -0.02075  -0.02792   0.00173   0.00108  -0.00706
  27        3PY        -0.02814  -0.05339   0.00322   0.01692   0.03612
  28        3PZ        -0.00143  -0.00238   0.15300  -0.00096  -0.00020
  29        4S          0.00814   0.01531   0.00439  -0.01791  -0.02447
  30        4PX        -0.01507  -0.01225   0.00157  -0.00166  -0.00845
  31        4PY        -0.01231  -0.02959   0.00297   0.01540   0.02738
  32        4PZ        -0.00173  -0.00291   0.14258  -0.00054   0.00033
  33 5   H  1S          0.00222  -0.01580  -0.00040   0.01121   0.02329
  34        2S          0.00954  -0.02758   0.00054   0.02386   0.04447
  35        3S          0.00771  -0.01588   0.00038   0.01675   0.02799
  36 6   H  1S         -0.01485  -0.00571  -0.00041  -0.00906  -0.01805
  37        2S         -0.02871  -0.00505   0.00052  -0.01891  -0.03431
  38        3S         -0.01752  -0.00106   0.00034  -0.01029  -0.01789
                          16        17        18        19        20
  16        3S          0.02069
  17 3   H  1S         -0.01802   0.08264
  18        2S         -0.02699   0.10980   0.14797
  19        3S         -0.01259   0.03598   0.05073   0.02000
  20 4   C  1S          0.00374   0.00432   0.00681   0.00377   0.65948
  21        2S          0.00551   0.00714   0.01135   0.00554   0.56156
  22        2PX        -0.00336   0.00884   0.02192   0.01653   0.00126
  23        2PY         0.01756   0.00739   0.00978   0.00576   0.00197
  24        2PZ         0.00005  -0.00065  -0.00016   0.00008   0.00009
  25        3S         -0.01425  -0.02146  -0.03410  -0.01429  -0.08926
  26        3PX        -0.00685   0.01417   0.03468   0.02589  -0.00043
  27        3PY         0.02646   0.00952   0.01195   0.00722  -0.00098
  28        3PZ         0.00010  -0.00095  -0.00015   0.00015   0.00020
  29        4S         -0.00590  -0.01777  -0.02394  -0.00555  -0.08039
  30        4PX        -0.00702   0.01398   0.02755   0.01706  -0.00020
  31        4PY         0.01603   0.00637   0.00642   0.00191  -0.00019
  32        4PZ         0.00033  -0.00054   0.00035   0.00035  -0.00005
  33 5   H  1S          0.01613  -0.00910  -0.01809  -0.00935  -0.01991
  34        2S          0.02740  -0.01885  -0.03405  -0.01690  -0.02205
  35        3S          0.01469  -0.01022  -0.01765  -0.00898   0.00056
  36 6   H  1S         -0.00941   0.01121   0.02308   0.01577  -0.01965
  37        2S         -0.01720   0.02394   0.04426   0.02694  -0.02205
  38        3S         -0.00919   0.01681   0.02789   0.01449   0.00045
                          21        22        23        24        25
  21        2S          0.49203
  22        2PX         0.00183   0.08215
  23        2PY         0.00282   0.00392   0.08742
  24        2PZ         0.00013   0.00016   0.00024   0.06430
  25        3S         -0.15423  -0.00584  -0.00913  -0.00014   0.45364
  26        3PX        -0.00063   0.12797   0.00213   0.00010  -0.00054
  27        3PY        -0.00148   0.00222   0.13112   0.00010   0.00025
  28        3PZ         0.00034   0.00024   0.00037   0.10281  -0.00065
  29        4S         -0.11624   0.01387   0.02334   0.00079   0.27983
  30        4PX        -0.00149   0.07352  -0.00527   0.00053   0.00631
  31        4PY        -0.00225  -0.00524   0.06725   0.00097   0.00991
  32        4PZ        -0.00016   0.00091   0.00164   0.09578   0.00092
  33 5   H  1S         -0.03173  -0.03321   0.06322  -0.00147   0.08485
  34        2S         -0.03525  -0.04984   0.08845  -0.00115   0.09431
  35        3S         -0.00065  -0.02291   0.03368  -0.00011   0.00569
  36 6   H  1S         -0.03134   0.07064   0.00302  -0.00138   0.08383
  37        2S         -0.03525   0.10115   0.00115  -0.00102   0.09423
  38        3S         -0.00078   0.04080  -0.00311  -0.00007   0.00592
                          26        27        28        29        30
  26        3PX         0.19969
  27        3PY        -0.00226   0.19724
  28        3PZ         0.00012   0.00013   0.16439
  29        4S          0.02573   0.04308   0.00096   0.18885
  30        4PX         0.11521  -0.01094   0.00082   0.01603   0.06759
  31        4PY        -0.01101   0.10174   0.00154   0.02551  -0.01092
  32        4PZ         0.00115   0.00208   0.15314   0.00234   0.00131
  33 5   H  1S         -0.05323   0.09922  -0.00244   0.06697  -0.03481
  34        2S         -0.08034   0.13830  -0.00194   0.07765  -0.05295
  35        3S         -0.03739   0.05196  -0.00018   0.00942  -0.02480
  36 6   H  1S          0.11183   0.00400  -0.00230   0.06747   0.06604
  37        2S          0.15994   0.00008  -0.00176   0.07939   0.09493
  38        3S          0.06419  -0.00638  -0.00013   0.01037   0.03845
                          31        32        33        34        35
  31        4PY         0.05408
  32        4PZ         0.00246   0.14269
  33 5   H  1S          0.05592  -0.00128   0.08024
  34        2S          0.07812  -0.00053   0.10993   0.15306
  35        3S          0.02952   0.00018   0.03835   0.05598   0.02332
  36 6   H  1S         -0.00193  -0.00122  -0.01235  -0.02611  -0.02010
  37        2S         -0.00651  -0.00046  -0.02625  -0.04893  -0.03216
  38        3S         -0.00665   0.00019  -0.02036  -0.03235  -0.01606
                          36        37        38
  36 6   H  1S          0.07933
  37        2S          0.10948   0.15350
  38        3S          0.03852   0.05655   0.02367
    Full Mulliken population analysis:
                           1         2         3         4         5
   1 1   C  1S          0.65940
   2        2S          0.49326   0.49202
   3        2PX         0.00000   0.00000   0.08455
   4        2PY         0.00000   0.00000   0.00000   0.08788
   5        2PZ         0.00000   0.00000   0.00000   0.00000   0.06446
   6        3S         -0.02927  -0.06442   0.00000   0.00000   0.00000
   7        3PX         0.00000   0.00000   0.08231   0.00000   0.00000
   8        3PY         0.00000   0.00000   0.00000   0.08265   0.00000
   9        3PZ         0.00000   0.00000   0.00000   0.00000   0.06526
  10        4S         -0.01219  -0.02135   0.00000   0.00000   0.00000
  11        4PX         0.00000   0.00000   0.01545   0.00000   0.00000
  12        4PY         0.00000   0.00000   0.00000   0.01439   0.00000
  13        4PZ         0.00000   0.00000   0.00000   0.00000   0.02111
  14 2   H  1S         -0.00024  -0.00034   0.00184   0.00569   0.00000
  15        2S         -0.00168  -0.00322   0.00431   0.01323   0.00001
  16        3S          0.00004  -0.00007   0.00069   0.00190   0.00000
  17 3   H  1S         -0.00026  -0.00037   0.00798  -0.00000   0.00001
  18        2S         -0.00175  -0.00335   0.01777  -0.00000   0.00001
  19        3S          0.00005  -0.00007   0.00254   0.00000   0.00000
  20 4   C  1S          0.00000   0.00000  -0.00002  -0.00006   0.00000
  21        2S          0.00000  -0.00000  -0.00002  -0.00006   0.00000
  22        2PX        -0.00002  -0.00002   0.00011   0.00086   0.00000
  23        2PY        -0.00006  -0.00005   0.00086   0.00198   0.00000
  24        2PZ        -0.00000  -0.00000  -0.00000  -0.00000   0.00042
  25        3S         -0.00059  -0.00100   0.00257   0.00769  -0.00000
  26        3PX        -0.00054  -0.00099   0.00019   0.00554   0.00000
  27        3PY        -0.00163  -0.00299   0.00556   0.01070   0.00000
  28        3PZ        -0.00000  -0.00000  -0.00000  -0.00000   0.00613
  29        4S          0.00034   0.00031   0.00096   0.00289  -0.00000
  30        4PX        -0.00018  -0.00045  -0.00071   0.00145   0.00000
  31        4PY        -0.00053  -0.00133   0.00146   0.00097   0.00000
  32        4PZ        -0.00000  -0.00000  -0.00000  -0.00000   0.00903
  33 5   H  1S          0.00000   0.00000  -0.00000  -0.00000   0.00000
  34        2S          0.00001   0.00002   0.00000  -0.00031   0.00000
  35        3S          0.00007   0.00013   0.00001  -0.00070  -0.00000
  36 6   H  1S          0.00000   0.00000  -0.00000  -0.00000   0.00000
  37        2S          0.00001   0.00002  -0.00023  -0.00006   0.00000
  38        3S          0.00007   0.00012  -0.00056  -0.00011  -0.00000
                           6         7         8         9        10
   6        3S          0.45250
   7        3PX         0.00000   0.20275
   8        3PY         0.00000   0.00000   0.19689
   9        3PZ         0.00000   0.00000   0.00000   0.16694
  10        4S          0.21119   0.00000   0.00000   0.00000   0.18145
  11        4PX         0.00000   0.07125   0.00000   0.00000   0.00000
  12        4PY         0.00000   0.00000   0.06428   0.00000   0.00000
  13        4PZ         0.00000   0.00000   0.00000   0.10078   0.00000
  14 2   H  1S          0.01627   0.01086   0.03255   0.00003   0.01842
  15        2S          0.04150   0.01955   0.05758   0.00003   0.04720
  16        3S          0.00282   0.00393   0.01016   0.00000   0.00845
  17 3   H  1S          0.01712   0.04452  -0.00000   0.00003   0.01856
  18        2S          0.04270   0.07729  -0.00000   0.00003   0.04674
  19        3S          0.00288   0.01380   0.00000   0.00000   0.00778
  20 4   C  1S         -0.00060  -0.00058  -0.00174   0.00000   0.00033
  21        2S         -0.00101  -0.00107  -0.00319   0.00000   0.00030
  22        2PX         0.00241   0.00018   0.00552   0.00000   0.00078
  23        2PY         0.00730   0.00555   0.01064   0.00000   0.00239
  24        2PZ         0.00000  -0.00000  -0.00000   0.00617   0.00000
  25        3S          0.02192   0.01356   0.04062  -0.00000   0.00027
  26        3PX         0.01247  -0.00127   0.01846   0.00000   0.00395
  27        3PY         0.03778   0.01856   0.02848   0.00000   0.01201
  28        3PZ         0.00000  -0.00000  -0.00000   0.03538   0.00000
  29        4S          0.00064   0.00494   0.01494  -0.00000  -0.02057
  30        4PX         0.00628  -0.00399   0.00582   0.00000   0.00191
  31        4PY         0.01879   0.00585   0.00124   0.00000   0.00552
  32        4PZ         0.00000  -0.00000  -0.00000   0.04935   0.00000
  33 5   H  1S         -0.00005  -0.00000  -0.00018   0.00000  -0.00078
  34        2S         -0.00119   0.00006  -0.00318  -0.00000  -0.00321
  35        3S         -0.00196   0.00011  -0.00424  -0.00000  -0.00125
  36 6   H  1S         -0.00005  -0.00012  -0.00005   0.00000  -0.00076
  37        2S         -0.00112  -0.00249  -0.00050  -0.00000  -0.00317
  38        3S         -0.00188  -0.00351  -0.00054  -0.00000  -0.00132
                          11        12        13        14        15
  11        4PX         0.05974
  12        4PY         0.00000   0.05069
  13        4PZ         0.00000   0.00000   0.14250
  14 2   H  1S          0.00632   0.01744   0.00001   0.08151
  15        2S          0.01525   0.04052   0.00001   0.07732   0.14907
  16        3S          0.00517   0.01170  -0.00000   0.01363   0.04094
  17 3   H  1S          0.02361   0.00000   0.00002  -0.00001  -0.00065
  18        2S          0.05478   0.00000   0.00001  -0.00064  -0.00528
  19        3S          0.01635   0.00000  -0.00000  -0.00199  -0.00782
  20 4   C  1S         -0.00019  -0.00058   0.00000   0.00000   0.00002
  21        2S         -0.00047  -0.00145   0.00000   0.00000   0.00003
  22        2PX        -0.00073   0.00137   0.00000  -0.00000   0.00000
  23        2PY         0.00138   0.00094   0.00000  -0.00000  -0.00036
  24        2PZ        -0.00000  -0.00000   0.00901   0.00000   0.00000
  25        3S          0.00655   0.02014  -0.00000  -0.00007  -0.00151
  26        3PX        -0.00427   0.00553   0.00000  -0.00000   0.00004
  27        3PY         0.00557   0.00122   0.00000  -0.00023  -0.00359
  28        3PZ        -0.00000  -0.00000   0.04894   0.00000   0.00000
  29        4S          0.00246   0.00803  -0.00000  -0.00106  -0.00442
  30        4PX        -0.00727   0.00310   0.00000   0.00001   0.00018
  31        4PY         0.00311  -0.00563   0.00000  -0.00246  -0.01037
  32        4PZ        -0.00000  -0.00000   0.08958   0.00000  -0.00000
  33 5   H  1S          0.00003  -0.00232   0.00000   0.00000   0.00000
  34        2S          0.00028  -0.00983  -0.00000   0.00000   0.00015
  35        3S          0.00029  -0.00731  -0.00000   0.00023   0.00146
  36 6   H  1S         -0.00176  -0.00047   0.00000  -0.00000  -0.00004
  37        2S         -0.00832  -0.00102  -0.00000  -0.00004  -0.00089
  38        3S         -0.00661  -0.00028  -0.00000  -0.00046  -0.00245
                          16        17        18        19        20
  16        3S          0.02069
  17 3   H  1S         -0.00201   0.08264
  18        2S         -0.00786   0.07756   0.14797
  19        3S         -0.00654   0.01344   0.04003   0.02000
  20 4   C  1S          0.00009   0.00000   0.00002   0.00010   0.65948
  21        2S          0.00016   0.00000   0.00003   0.00017   0.49330
  22        2PX         0.00001  -0.00000  -0.00028  -0.00059   0.00000
  23        2PY        -0.00074  -0.00000  -0.00008  -0.00013   0.00000
  24        2PZ        -0.00000   0.00000   0.00000  -0.00000   0.00000
  25        3S         -0.00247  -0.00008  -0.00155  -0.00250  -0.02938
  26        3PX         0.00006  -0.00016  -0.00292  -0.00365   0.00000
  27        3PY        -0.00444  -0.00007  -0.00066  -0.00067   0.00000
  28        3PZ        -0.00000   0.00000   0.00000  -0.00000   0.00000
  29        4S         -0.00222  -0.00106  -0.00436  -0.00210  -0.01236
  30        4PX         0.00018  -0.00188  -0.00877  -0.00676   0.00000
  31        4PY        -0.00758  -0.00057  -0.00135  -0.00050   0.00000
  32        4PZ        -0.00000   0.00000  -0.00000  -0.00000   0.00000
  33 5   H  1S          0.00022  -0.00000  -0.00004  -0.00043  -0.00021
  34        2S          0.00143  -0.00004  -0.00092  -0.00236  -0.00156
  35        3S          0.00247  -0.00047  -0.00246  -0.00287   0.00004
  36 6   H  1S         -0.00042   0.00000   0.00000   0.00022  -0.00019
  37        2S         -0.00236   0.00000   0.00015   0.00140  -0.00152
  38        3S         -0.00291   0.00023   0.00145   0.00242   0.00004
                          21        22        23        24        25
  21        2S          0.49203
  22        2PX         0.00000   0.08215
  23        2PY         0.00000   0.00000   0.08742
  24        2PZ         0.00000   0.00000   0.00000   0.06430
  25        3S         -0.06459   0.00000   0.00000   0.00000   0.45364
  26        3PX         0.00000   0.08051   0.00000   0.00000   0.00000
  27        3PY         0.00000   0.00000   0.08249   0.00000   0.00000
  28        3PZ         0.00000   0.00000   0.00000   0.06468   0.00000
  29        4S         -0.02175   0.00000   0.00000   0.00000   0.21679
  30        4PX         0.00000   0.01619   0.00000   0.00000   0.00000
  31        4PY         0.00000   0.00000   0.01481   0.00000   0.00000
  32        4PZ         0.00000   0.00000   0.00000   0.02109   0.00000
  33 5   H  1S         -0.00029   0.00143   0.00550   0.00000   0.01500
  34        2S         -0.00298   0.00379   0.01356   0.00001   0.03886
  35        3S         -0.00006   0.00068   0.00202   0.00000   0.00260
  36 6   H  1S         -0.00027   0.00657   0.00002   0.00000   0.01446
  37        2S         -0.00291   0.01708   0.00001   0.00001   0.03829
  38        3S         -0.00007   0.00272  -0.00001   0.00000   0.00269
                          26        27        28        29        30
  26        3PX         0.19969
  27        3PY         0.00000   0.19724
  28        3PZ         0.00000   0.00000   0.16439
  29        4S          0.00000   0.00000   0.00000   0.18885
  30        4PX         0.07528   0.00000   0.00000   0.00000   0.06759
  31        4PY         0.00000   0.06648   0.00000   0.00000   0.00000
  32        4PZ         0.00000   0.00000   0.10007   0.00000   0.00000
  33 5   H  1S          0.00878   0.03300   0.00003   0.01746   0.00578
  34        2S          0.01727   0.05997   0.00003   0.04427   0.01484
  35        3S          0.00388   0.01087   0.00000   0.00706   0.00547
  36 6   H  1S          0.04071   0.00010   0.00003   0.01743   0.02458
  37        2S          0.07676   0.00000   0.00003   0.04493   0.05979
  38        3S          0.01498  -0.00011   0.00000   0.00774   0.01912
                          31        32        33        34        35
  31        4PY         0.05408
  32        4PZ         0.00000   0.14269
  33 5   H  1S          0.01871   0.00002   0.08024
  34        2S          0.04415   0.00001   0.07765   0.15306
  35        3S          0.01313  -0.00000   0.01433   0.04417   0.02332
  36 6   H  1S         -0.00005   0.00002  -0.00001  -0.00078  -0.00235
  37        2S         -0.00029   0.00001  -0.00079  -0.00666  -0.00975
  38        3S         -0.00023  -0.00000  -0.00238  -0.00981  -0.00856
                          36        37        38
  36 6   H  1S          0.07933
  37        2S          0.07733   0.15350
  38        3S          0.01439   0.04461   0.02367
     Gross orbital populations:
                           1
   1 1   C  1S          1.10434
   2        2S          0.88586
   3        2PX         0.22763
   4        2PY         0.23652
   5        2PZ         0.16643
   6        3S          0.79302
   7        3PX         0.56206
   8        3PY         0.55617
   9        3PZ         0.42401
  10        4S          0.50265
  11        4PX         0.25796
  12        4PY         0.21048
  13        4PZ         0.41195
  14 2   H  1S          0.27461
  15        2S          0.46610
  16        3S          0.08511
  17 3   H  1S          0.27809
  18        2S          0.46424
  19        3S          0.08219
  20 4   C  1S          1.10443
  21        2S          0.88584
  22        2PX         0.22073
  23        2PY         0.23543
  24        2PZ         0.16570
  25        3S          0.79190
  26        3PX         0.55030
  27        3PY         0.55564
  28        3PZ         0.41972
  29        4S          0.51014
  30        4PX         0.27758
  31        4PY         0.21742
  32        4PZ         0.41185
  33 5   H  1S          0.27072
  34        2S          0.47078
  35        3S          0.09033
  36 6   H  1S          0.26786
  37        2S          0.47180
  38        3S          0.09241
          Condensed to atoms (all electrons):
               1          2          3          4          5          6
     1  C    5.031169   0.387903   0.388777   0.601476  -0.035507  -0.034732
     2  H    0.387903   0.515060  -0.032800  -0.040740   0.005977  -0.009576
     3  H    0.388777  -0.032800   0.512665  -0.040397  -0.009594   0.005875
     4  C    0.601476  -0.040740  -0.040397   5.060770   0.383124   0.382430
     5  H   -0.035507   0.005977  -0.009594   0.383124   0.528920  -0.041092
     6  H   -0.034732  -0.009576   0.005875   0.382430  -0.041092   0.529169
 Mulliken charges:
               1
     1  C   -0.339086
     2  H    0.174177
     3  H    0.175474
     4  C   -0.346663
     5  H    0.168172
     6  H    0.167927
 Sum of Mulliken charges =   0.00000
 Mulliken charges with hydrogens summed into heavy atoms:
               1
     1  C    0.010564
     4  C   -0.010564
 Electronic spatial extent (au):  <R**2>=             83.7947
 Charge=              0.0000 electrons
 Dipole moment (field-independent basis, Debye):
    X=             -0.0003    Y=              0.0193    Z=             -0.1228  Tot=              0.1243
 Quadrupole moment (field-independent basis, Debye-Ang):
   XX=            -12.2137   YY=            -12.2216   ZZ=            -15.6748
   XY=              0.0173   XZ=             -0.0013   YZ=             -0.0047
 Traceless Quadrupole moment (field-independent basis, Debye-Ang):
   XX=              1.1563   YY=              1.1484   ZZ=             -2.3047
   XY=              0.0173   XZ=             -0.0013   YZ=             -0.0047
 Octapole moment (field-independent basis, Debye-Ang**2):
  XXX=             -0.3736  YYY=             -0.1067  ZZZ=             -0.0562  XYY=              0.2053
  XXY=             -0.0292  XXZ=             -0.1599  XZZ=             -0.1053  YZZ=             -0.1118
  YYZ=             -0.2131  XYZ=             -0.0455
 Hexadecapole moment (field-independent basis, Debye-Ang**3):
 XXXX=            -34.3689 YYYY=            -55.2688 ZZZZ=            -17.8217 XXXY=             -7.2418
 XXXZ=              0.0204 YYYX=            -10.7104 YYYZ=              0.0281 ZZZX=              0.0302
 ZZZY=              0.0528 XXYY=            -16.2193 XXZZ=             -9.9456 YYZZ=            -13.6619
 XXYZ=              0.0091 YYXZ=              0.0001 ZZXY=             -3.2083
 N-N= 3.305224789690D+01 E-N=-2.478077397505D+02  KE= 7.814435175701D+01
 Orbital energies and kinetic energies (alpha):
                                 1                 2
   1         O               -10.291518         15.979376
   2         O               -10.287673         15.979166
   3         O                -0.863987          1.540111
   4         O                -0.671606          1.269434
   5         O                -0.559118          0.941799
   6         O                -0.509564          1.282747
   7         O                -0.435506          1.040334
   8         O                -0.357142          1.039210
   9         V                 0.079834          1.182029
  10         V                 0.140673          0.591229
  11         V                 0.164132          0.598089
  12         V                 0.169707          0.681324
  13         V                 0.240616          0.585081
  14         V                 0.373152          0.849442
  15         V                 0.392295          0.931944
  16         V                 0.400075          0.784215
  17         V                 0.462655          1.198446
  18         V                 0.488367          1.413688
  19         V                 0.493572          1.301348
  20         V                 0.591023          1.653531
  21         V                 0.664783          1.572130
  22         V                 0.690282          2.144131
  23         V                 0.771376          2.427149
  24         V                 0.776180          2.310785
  25         V                 0.840050          1.082212
  26         V                 0.952809          3.429852
  27         V                 2.231590          3.924835
  28         V                 2.289913          4.028046
  29         V                 2.333002          4.302593
  30         V                 2.405525          4.512152
  31         V                 2.671211          6.301042
  32         V                 2.817005          6.303821
  33         V                 2.878470          6.139573
  34         V                 2.950910          6.227048
  35         V                 3.140970          6.821035
  36         V                 3.316332          6.401910
  37         V                23.350986         60.073953
  38         V                23.706312         60.204406
 Total kinetic energy from orbitals= 7.814435175701D+01
 Calling FoFJK, ICntrl=      2127 FMM=F ISym2X=0 I1Cent= 0 IOpClX= 0 NMat=1 NMatS=1 NMatT=0.
 -------------------------------------------------------------------
 Center     Atomic                   Forces (Hartrees/Bohr)
 Number     Number              X              Y              Z
 -------------------------------------------------------------------
      1        6           0.013788431    0.009887162   -0.004826516
      2        1          -0.008880697    0.004194986    0.002440173
      3        1           0.001029173   -0.005292074    0.002215735
      4        6           0.012311170    0.014946821   -0.005640821
      5        1           0.002923072   -0.016811885    0.002843847
      6        1          -0.021171150   -0.006925010    0.002967582
 -------------------------------------------------------------------
 Cartesian Forces:  Max     0.021171150 RMS     0.009599214

 GradGradGradGradGradGradGradGradGradGradGradGradGradGradGradGradGradGrad
 Berny optimization.
 Search for a local minimum.
 Step number   1 out of a maximum of    2
 All quantities printed in internal units (Hartrees-Bohrs-Radians)
 Second derivative matrix not updated -- first step.
 The second derivative matrix:
                          X1        Y1        Z1        X2        Y2
           X1           0.76392
           Y1           0.09577   0.86243
           Z1           0.00713   0.01117   0.17166
           X2          -0.16613   0.09763   0.00266   0.14329
           Y2           0.10353  -0.28515  -0.00942  -0.11694   0.27390
           Z2           0.00418  -0.01180  -0.05535  -0.00383   0.00974
           X3          -0.35520   0.00044  -0.01013  -0.00002   0.00000
           Y3          -0.00528  -0.11063  -0.00244   0.03251   0.01899
           Z3          -0.01296  -0.00235  -0.05622   0.00192   0.00072
           X4          -0.26786  -0.17925  -0.00093   0.02288   0.01340
           Y4          -0.17976  -0.47489  -0.00154  -0.01321  -0.00774
           Z4           0.00163   0.00293  -0.09450  -0.00075  -0.00104
           X5           0.02341  -0.01352   0.00078  -0.00001   0.00001
           Y5           0.01158  -0.00669   0.00106   0.00001  -0.00000
           Z5          -0.00064   0.00040   0.01735   0.00032  -0.00017
           X6           0.00186  -0.00107   0.00049  -0.00001   0.00001
           Y6          -0.02585   0.01493   0.00118   0.00001  -0.00000
           Z6           0.00066  -0.00035   0.01706  -0.00032   0.00017
                          Z2        X3        Y3        Z3        X4
           Z2           0.02890
           X3          -0.00036   0.35525
           Y3           0.00204  -0.00047   0.07618
           Z3           0.01059   0.01103   0.00161   0.02963
           X4           0.00065  -0.00002  -0.02678  -0.00063   0.70219
           Y4          -0.00035   0.00001   0.01546   0.00039   0.12617
           Z4           0.01584  -0.00054  -0.00121   0.01603  -0.00635
           X5          -0.00032  -0.00001   0.00001   0.00032  -0.14339
           Y5           0.00020   0.00001  -0.00000  -0.00020   0.08997
           Z5           0.00927   0.00032  -0.00020  -0.00940  -0.00382
           X6          -0.00032  -0.00001   0.00001   0.00033  -0.31379
           Y6           0.00017   0.00001  -0.00000  -0.00017  -0.02350
           Z6          -0.00925  -0.00032   0.00020   0.00937   0.01108
                          Y4        Z4        X5        Y5        Z5
           Y4           0.85470
           Z4          -0.01217   0.17621
           X5           0.08180  -0.00251   0.12234
           Y5          -0.28416   0.00908  -0.10042   0.27499
           Z5           0.01128  -0.05696   0.00338  -0.00971   0.02965
           X6          -0.01501   0.00852  -0.00234  -0.00114   0.00045
           Y6          -0.10337   0.00240   0.03213   0.01587  -0.00161
           Z6           0.00239  -0.05661  -0.00165  -0.00043   0.01009
                          X6        Y6        Z6
           X6           0.31429
           Y6           0.01721   0.07258
           Z6          -0.00946  -0.00197   0.02935
 ITU=  0
     Eigenvalues ---    0.03735   0.04367   0.09111   0.10118   0.13492
     Eigenvalues ---    0.17337   0.26415   0.28897   0.52621   0.69235
     Eigenvalues ---    0.97339   1.56456
 Angle between quadratic step and forces=  36.28 degrees.
 Linear search not attempted -- first point.
 B after Tr=     0.007168    0.009392   -0.012629
         Rot=    1.000000   -0.000044    0.000022   -0.000113 Ang=  -0.01 deg.
 Variable       Old X    -DE/DX   Delta X   Delta X   Delta X     New X
                                 (Linear)    (Quad)   (Total)
    X1       -0.63533   0.01379   0.00000   0.02137   0.02878  -0.60655
    Y1       -1.10020   0.00989   0.00000   0.02623   0.03549  -1.06472
    Z1        0.01476  -0.00483   0.00000  -0.02667  -0.03942  -0.02466
    X2        0.41078  -0.00888   0.00000  -0.03314  -0.02532   0.38546
    Y2       -2.88335   0.00419   0.00000   0.01968   0.02916  -2.85419
    Z2       -0.05331   0.00244   0.00000   0.03294   0.02008  -0.03323
    X3       -2.68187   0.00103   0.00000   0.02243   0.02986  -2.65201
    Y3       -1.09718  -0.00529   0.00000  -0.02299  -0.01420  -1.11138
    Z3       -0.05446   0.00222   0.00000   0.03198   0.01914  -0.03533
    X4        0.62822   0.01231   0.00000   0.00829   0.01521   0.64343
    Y4        1.08793   0.01495   0.00000   0.01267   0.02221   1.11014
    Z4        0.01102  -0.00564   0.00000  -0.02559  -0.03810  -0.02708
    X5       -0.30365   0.00292   0.00000  -0.00714  -0.00063  -0.30428
    Y5        2.96747  -0.01681   0.00000  -0.04926  -0.03994   2.92753
    Z5       -0.06138   0.00284   0.00000   0.03201   0.01963  -0.04176
    X6        2.73787  -0.02117   0.00000  -0.05479  -0.04789   2.68998
    Y6        1.23773  -0.00693   0.00000  -0.04271  -0.03272   1.20501
    Z6       -0.05970   0.00297   0.00000   0.03108   0.01868  -0.04103
         Item               Value     Threshold  Converged?
 Maximum Force            0.021171     0.000450     NO 
 RMS     Force            0.009599     0.000300     NO 
 Maximum Displacement     0.047888     0.001800     NO 
 RMS     Displacement     0.028736     0.001200     NO 
 Predicted change in Energy=-2.118776D-03
 GradGradGradGradGradGradGradGradGradGradGradGradGradGradGradGradGradGrad

 Unable to Open any file for archive entry.
 1\1\GINC-BHD0008\Force\RwB97XD\6-311G\C2H4\BWEIGHT\11-Jan-2023\0\\# WB
 97XD/6-311G SCF=XQC FORCE nosym pop=full guess=read\\MD Step 999\\0,1\
 C,-0.33620102,-0.5822025,0.00781271\H,0.21737727,-1.5258021,-0.0282086
 \H,-1.41918224,-0.58060175,-0.02882127\C,0.33243904,0.57570833,0.00583
 267\H,-0.1606866,1.57031539,-0.03248131\H,1.44881582,0.65497744,-0.031
 59404\\Version=ES64L-G16RevC.01\HF=-78.5550677\RMSD=4.946e-09\RMSF=9.5
 99e-03\Dipole=-0.0001136,0.0075931,-0.0483219\Quadrupole=0.8596986,0.8
 538116,-1.7135102,0.0128507,-0.0009713,-0.003472\PG=C01 [X(C2H4)]\\@
 The archive entry for this job was punched.


 IN THE WOODS WE RETURN TO REASON AND FAITH.

                                 -- EMERSON
 Job cpu time:       0 days  0 hours  0 minutes 17.1 seconds.
 Elapsed time:       0 days  0 hours  0 minutes  5.2 seconds.
 File lengths (MBytes):  RWF=    272 Int=      0 D2E=      0 Chk=     32 Scr=     32
 Normal termination of Gaussian 16 at Wed Jan 11 19:40:58 2023.
