 Entering Gaussian System, Link 0=g16
 Initial command:
 /software/gaussian/g16-c01/avx2/g16/l1.exe "/gpfs/fs2/scratch/bweight/software/many_molecule_many_mode_NAMD/src/NAMD/EXAMPLE_1_BOMD_GS/G16/GS_NEW/Gau-29514.inp" -scrdir="/gpfs/fs2/scratch/bweight/software/many_molecule_many_mode_NAMD/src/NAMD/EXAMPLE_1_BOMD_GS/G16/GS_NEW/"
 Entering Link 1 = /software/gaussian/g16-c01/avx2/g16/l1.exe PID=     29515.
  
 Copyright (c) 1988-2019, Gaussian, Inc.  All Rights Reserved.
  
 This is part of the Gaussian(R) 16 program.  It is based on
 the Gaussian(R) 09 system (copyright 2009, Gaussian, Inc.),
 the Gaussian(R) 03 system (copyright 2003, Gaussian, Inc.),
 the Gaussian(R) 98 system (copyright 1998, Gaussian, Inc.),
 the Gaussian(R) 94 system (copyright 1995, Gaussian, Inc.),
 the Gaussian 92(TM) system (copyright 1992, Gaussian, Inc.),
 the Gaussian 90(TM) system (copyright 1990, Gaussian, Inc.),
 the Gaussian 88(TM) system (copyright 1988, Gaussian, Inc.),
 the Gaussian 86(TM) system (copyright 1986, Carnegie Mellon
 University), and the Gaussian 82(TM) system (copyright 1983,
 Carnegie Mellon University). Gaussian is a federally registered
 trademark of Gaussian, Inc.
  
 This software contains proprietary and confidential information,
 including trade secrets, belonging to Gaussian, Inc.
  
 This software is provided under written license and may be
 used, copied, transmitted, or stored only in accord with that
 written license.
  
 The following legend is applicable only to US Government
 contracts under FAR:
  
                    RESTRICTED RIGHTS LEGEND
  
 Use, reproduction and disclosure by the US Government is
 subject to restrictions as set forth in subparagraphs (a)
 and (c) of the Commercial Computer Software - Restricted
 Rights clause in FAR 52.227-19.
  
 Gaussian, Inc.
 340 Quinnipiac St., Bldg. 40, Wallingford CT 06492
  
  
 ---------------------------------------------------------------
 Warning -- This program may not be used in any manner that
 competes with the business of Gaussian, Inc. or will provide
 assistance to any competitor of Gaussian, Inc.  The licensee
 of this program is prohibited from giving any competitor of
 Gaussian, Inc. access to this program.  By using this program,
 the user acknowledges that Gaussian, Inc. is engaged in the
 business of creating and licensing software in the field of
 computational chemistry and represents and warrants to the
 licensee that it is not a competitor of Gaussian, Inc. and that
 it will not use this program in any manner prohibited above.
 ---------------------------------------------------------------
  

 Cite this work as:
 Gaussian 16, Revision C.01,
 M. J. Frisch, G. W. Trucks, H. B. Schlegel, G. E. Scuseria, 
 M. A. Robb, J. R. Cheeseman, G. Scalmani, V. Barone, 
 G. A. Petersson, H. Nakatsuji, X. Li, M. Caricato, A. V. Marenich, 
 J. Bloino, B. G. Janesko, R. Gomperts, B. Mennucci, H. P. Hratchian, 
 J. V. Ortiz, A. F. Izmaylov, J. L. Sonnenberg, D. Williams-Young, 
 F. Ding, F. Lipparini, F. Egidi, J. Goings, B. Peng, A. Petrone, 
 T. Henderson, D. Ranasinghe, V. G. Zakrzewski, J. Gao, N. Rega, 
 G. Zheng, W. Liang, M. Hada, M. Ehara, K. Toyota, R. Fukuda, 
 J. Hasegawa, M. Ishida, T. Nakajima, Y. Honda, O. Kitao, H. Nakai, 
 T. Vreven, K. Throssell, J. A. Montgomery, Jr., J. E. Peralta, 
 F. Ogliaro, M. J. Bearpark, J. J. Heyd, E. N. Brothers, K. N. Kudin, 
 V. N. Staroverov, T. A. Keith, R. Kobayashi, J. Normand, 
 K. Raghavachari, A. P. Rendell, J. C. Burant, S. S. Iyengar, 
 J. Tomasi, M. Cossi, J. M. Millam, M. Klene, C. Adamo, R. Cammi, 
 J. W. Ochterski, R. L. Martin, K. Morokuma, O. Farkas, 
 J. B. Foresman, and D. J. Fox, Gaussian, Inc., Wallingford CT, 2019.
 
 ******************************************
 Gaussian 16:  ES64L-G16RevC.01  3-Jul-2019
                29-Dec-2022 
 ******************************************
 %oldchk=../GS_OLD/geometry.chk
 %chk=geometry.chk
 %nprocshared=1
 Will use up to    1 processors via shared memory.
 %mem=5GB
 Copying data from "../GS_OLD/geometry.chk" to current chk file "geometry.chk"
 IOpt=  2 FromEx=T IUOpen= 4 IOptOp= 5 NList=   0 IFRang= 0 IUIn= 4 IUOut= 2.
 ------------------------------------------
 # BLYP/STO-3G SCF=XQC FORCE nosym pop=full
 ------------------------------------------
 1/10=7,30=1,38=1/1,3;
 2/12=2,15=1,17=6,18=5,40=1/2;
 3/6=3,11=2,25=1,30=1,71=1,74=402/1,2,3;
 4//1;
 5/5=2,8=3,13=1,38=5/2,8;
 6/7=3,28=1/1;
 7/29=1,30=1/1,2,3,16;
 1/10=7,30=1/3;
 99//99;
 ------------
 MD Step 1000
 ------------
 Symbolic Z-matrix:
 Charge =  0 Multiplicity = 1
 Li                    1.82925   1.82935   2.56831 
 H                     1.86855   1.86877  -0.22475 
 

 GradGradGradGradGradGradGradGradGradGradGradGradGradGradGradGradGradGrad
 Berny optimization.
 Initialization pass.
 Trust Radius=3.00D-01 FncErr=1.00D-07 GrdErr=1.00D-07 EigMax=2.50D+02 EigMin=1.00D-04
 Number of steps in this run=      2 maximum allowed number of steps=      2.
 GradGradGradGradGradGradGradGradGradGradGradGradGradGradGradGradGradGrad

                          Input orientation:                          
 ---------------------------------------------------------------------
 Center     Atomic      Atomic             Coordinates (Angstroms)
 Number     Number       Type             X           Y           Z
 ---------------------------------------------------------------------
      1          3           0        1.829247    1.829349    2.568315
      2          1           0        1.868550    1.868766   -0.224754
 ---------------------------------------------------------------------
 Symmetry turned off by external request.
 Stoichiometry    HLi
 Framework group  C*V[C*(HLi)]
 Deg. of freedom     1
 Full point group                 C*V     NOp   4
 Rotational constants (GHZ):           0.0000000          73.4832504          73.4832504
 Standard basis: STO-3G (5D, 7F)
     6 basis functions,    18 primitive gaussians,     6 cartesian basis functions
     2 alpha electrons        2 beta electrons
       nuclear repulsion energy         0.5682698582 Hartrees.
 NAtoms=    2 NActive=    2 NUniq=    2 SFac= 1.00D+00 NAtFMM=   60 NAOKFM=F Big=F
 Integral buffers will be    131072 words long.
 Raffenetti 2 integral format.
 Two-electron integral symmetry is turned off.
 One-electron integrals computed using PRISM.
 NBasis=     6 RedAO= T EigKep=  6.78D-01  NBF=     6
 NBsUse=     6 1.00D-06 EigRej= -1.00D+00 NBFU=     6
 ExpMin= 4.81D-02 ExpMax= 1.61D+01 ExpMxC= 1.61D+01 IAcc=3 IRadAn=         5 AccDes= 0.00D+00
 Harris functional with IExCor=  402 and IRadAn=       5 diagonalized for initial guess.
 HarFok:  IExCor=  402 AccDes= 0.00D+00 IRadAn=         5 IDoV= 1 UseB2=F ITyADJ=14
 ICtDFT=  3500011 ScaDFX=  1.000000  1.000000  1.000000  1.000000
 FoFCou: FMM=F IPFlag=           0 FMFlag=      100000 FMFlg1=           0
         NFxFlg=           0 DoJE=T BraDBF=F KetDBF=T FulRan=T
         wScrn=  0.000000 ICntrl=       500 IOpCl=  0 I1Cent=   200000004 NGrid=           0
         NMat0=    1 NMatS0=      1 NMatT0=    0 NMatD0=    1 NMtDS0=    0 NMtDT0=    0
 Symmetry not used in FoFCou.
 Keep J ints in memory in canonical form, NReq=846976.
 Requested convergence on RMS density matrix=1.00D-08 within  32 cycles.
 Requested convergence on MAX density matrix=1.00D-06.
 Requested convergence on             energy=1.00D-06.
 No special actions if energy rises.
 Rare condition: small coef for last iteration:  0.000D+00
 EnCoef did   100 forward-backward iterations
 EnCoef did   100 forward-backward iterations
 EnCoef did   100 forward-backward iterations
 EnCoef did   100 forward-backward iterations
 SCF Done:  E(RB-LYP) =  -7.85499951934     A.U. after   15 cycles
            NFock= 15  Conv=0.20D-09     -V/T= 1.9871
 QCSCF skips out because SCF is already converged.

 **********************************************************************

            Population analysis using the SCF Density.

 **********************************************************************

 Alpha  occ. eigenvalues --   -1.80375  -0.10102
 Alpha virt. eigenvalues --   -0.04969   0.01683   0.01683   0.09109
     Molecular Orbital Coefficients:
                           1         2         3         4         5
                           O         O         V         V         V
     Eigenvalues --    -1.80375  -0.10102  -0.04969   0.01683   0.01683
   1 1   Li 1S          0.98668  -0.17774  -0.22144  -0.00000  -0.00000
   2        2S          0.05041   0.60619   0.77144  -0.00000  -0.00000
   3        2PX        -0.00004   0.00287  -0.00712   0.70989   0.70417
   4        2PY        -0.00004   0.00288  -0.00714  -0.70432   0.70975
   5        2PZ         0.00250  -0.20389   0.50629   0.00005   0.01993
   6 2   H  1S         -0.00465   0.65598  -0.42468  -0.00000  -0.00000
                           6
                           V
     Eigenvalues --     0.09109
   1 1   Li 1S          0.09421
   2        2S         -0.35224
   3        2PX        -0.01227
   4        2PY        -0.01230
   5        2PZ         0.87165
   6 2   H  1S          0.68796
     Density Matrix:
                           1         2         3         4         5
   1 1   Li 1S          2.01027
   2        2S         -0.11601   0.74001
   3        2PX        -0.00109   0.00347   0.00002
   4        2PY        -0.00109   0.00348   0.00002   0.00002
   5        2PZ         0.07742  -0.24694  -0.00117  -0.00117   0.08316
   6 2   H  1S         -0.24236   0.79482   0.00376   0.00378  -0.26752
                           6
   6 2   H  1S          0.86065
    Full Mulliken population analysis:
                           1         2         3         4         5
   1 1   Li 1S          2.01027
   2        2S         -0.02798   0.74001
   3        2PX         0.00000   0.00000   0.00002
   4        2PY         0.00000   0.00000   0.00000   0.00002
   5        2PZ         0.00000   0.00000   0.00000   0.00000   0.08316
   6 2   H  1S         -0.00088   0.11985   0.00001   0.00001   0.06192
                           6
   6 2   H  1S          0.86065
     Gross orbital populations:
                           1
   1 1   Li 1S          1.98142
   2        2S          0.83188
   3        2PX         0.00003
   4        2PY         0.00003
   5        2PZ         0.14508
   6 2   H  1S          1.04157
          Condensed to atoms (all electrons):
               1          2
     1  Li   2.777519   0.180914
     2  H    0.180914   0.860653
 Mulliken charges:
               1
     1  Li   0.041567
     2  H   -0.041567
 Sum of Mulliken charges =  -0.00000
 Mulliken charges with hydrogens summed into heavy atoms:
               1
     1  Li  -0.000000
 Electronic spatial extent (au):  <R**2>=            168.1727
 Charge=             -0.0000 electrons
 Dipole moment (field-independent basis, Debye):
    X=             -0.0599    Y=             -0.0601    Z=              4.2569  Tot=              4.2577
 Quadrupole moment (field-independent basis, Debye-Ang):
   XX=             -6.2415   YY=             -6.2421   ZZ=             11.5606
   XY=             -0.2203   XZ=              7.6933   YZ=              7.6935
 Traceless Quadrupole moment (field-independent basis, Debye-Ang):
   XX=             -5.9338   YY=             -5.9345   ZZ=             11.8683
   XY=             -0.2203   XZ=              7.6933   YZ=              7.6935
 Octapole moment (field-independent basis, Debye-Ang**2):
  XXX=            -33.8999  YYY=            -33.9043  ZZZ=             28.8908  XYY=            -11.7052
  XXY=            -11.7054  XXZ=              4.3458  XZZ=             20.8896  YZZ=             20.8900
  YYZ=              4.3464  XYZ=             13.9012
 Hexadecapole moment (field-independent basis, Debye-Ang**3):
 XXXX=           -140.7255 YYYY=           -140.7491 ZZZZ=             41.3156 XXXY=            -62.8548
 XXXZ=            -27.5344 YYYX=            -62.8571 YYYZ=            -27.5364 ZZZX=             52.2528
 ZZZY=             52.2540 XXYY=            -47.9032 XXZZ=             12.6669 YYZZ=             12.6684
 XXYZ=              7.5624 YYXZ=              7.5641 ZZXY=             37.7387
 N-N= 5.682698581656D-01 E-N=-1.940324854960D+01  KE= 7.957989487671D+00
 Orbital energies and kinetic energies (alpha):
                                 1                 2
   1         O                -1.803753          3.480441
   2         O                -0.101025          0.498553
   3         V                -0.049694          0.466690
   4         V                 0.016826          0.319682
   5         V                 0.016826          0.319682
   6         V                 0.091093          0.634923
 Total kinetic energy from orbitals= 7.957989487671D+00
 Calling FoFJK, ICntrl=      2527 FMM=F ISym2X=0 I1Cent= 0 IOpClX= 0 NMat=1 NMatS=1 NMatT=0.
 -------------------------------------------------------------------
 Center     Atomic                   Forces (Hartrees/Bohr)
 Number     Number              X              Y              Z
 -------------------------------------------------------------------
      1        3           0.000567927    0.000569561   -0.040351295
      2        1          -0.000567927   -0.000569561    0.040351295
 -------------------------------------------------------------------
 Cartesian Forces:  Max     0.040351295 RMS     0.023301459

 GradGradGradGradGradGradGradGradGradGradGradGradGradGradGradGradGradGrad
 Berny optimization.
 Search for a local minimum.
 Step number   1 out of a maximum of    2
 All quantities printed in internal units (Hartrees-Bohrs-Radians)
 Second derivative matrix not updated -- first step.
 The second derivative matrix:
                          X1        Y1        Z1        X2        Y2
           X1           1.00000
           Y1           0.00000   1.00000
           Z1           0.00000   0.00000   1.00000
           X2           0.00000   0.00000   0.00000   1.00000
           Y2           0.00000   0.00000   0.00000   0.00000   1.00000
           Z2           0.00000   0.00000   0.00000   0.00000   0.00000
                          Z2
           Z2           1.00000
 ITU=  0
     Eigenvalues ---    1.00000   1.00000   1.00000   1.00000   1.00000
     Eigenvalues ---    1.00000
 Angle between quadratic step and forces=   0.00 degrees.
 Linear search not attempted -- first point.
 B after Tr=     0.000000    0.000000   -0.000000
         Rot=    1.000000   -0.000000    0.000000    0.000000 Ang=  -0.00 deg.
 Variable       Old X    -DE/DX   Delta X   Delta X   Delta X     New X
                                 (Linear)    (Quad)   (Total)
    X1        3.45678   0.00057   0.00000   0.00057   0.00057   3.45734
    Y1        3.45697   0.00057   0.00000   0.00057   0.00057   3.45754
    Z1        4.85341  -0.04035   0.00000  -0.04035  -0.04035   4.81306
    X2        3.53105  -0.00057   0.00000  -0.00057  -0.00057   3.53048
    Y2        3.53146  -0.00057   0.00000  -0.00057  -0.00057   3.53089
    Z2       -0.42472   0.04035   0.00000   0.04035   0.04035  -0.38437
         Item               Value     Threshold  Converged?
 Maximum Force            0.040351     0.000450     NO 
 RMS     Force            0.023301     0.000300     NO 
 Maximum Displacement     0.040351     0.001800     NO 
 RMS     Displacement     0.023301     0.001200     NO 
 Predicted change in Energy=-1.628874D-03
 GradGradGradGradGradGradGradGradGradGradGradGradGradGradGradGradGradGrad

 Unable to Open any file for archive entry.
 1\1\GINC-BHD0001\Force\RBLYP\STO-3G\H1Li1\BWEIGHT\29-Dec-2022\0\\# BLY
 P/STO-3G SCF=XQC FORCE nosym pop=full\\MD Step 1000\\0,1\Li,1.82924668
 ,1.82934944,2.56831455\H,1.86855023,1.86876606,-0.22475364\\Version=ES
 64L-G16RevC.01\HF=-7.8549995\RMSD=2.001e-10\RMSF=2.330e-02\Dipole=-0.0
 235674,-0.0236352,1.6747894\Quadrupole=-4.4116492,-4.4121308,8.82378,-
 0.1638061,5.7198072,5.7199323\PG=C*V [C*(H1Li1)]\\@
 The archive entry for this job was punched.


 EXPERIMENTALISTS THINK SILICON IS REALLY FUN TO USE
     ITS PLACE IN NOVEL COMPOUNDS IS CERTAIN TO AMUSE
 THEY SIT ALL DAY IN LABORATORIES MAKING ALL THIS SLUDGE
     "LOADED WITH THE SILICON THEY SAY", TO ME IT LOOKS LIKE FUDGE.
 FOR HAPPY THOUGH THEY BE WITH CRUD, I'D LIKE TO KNOW A LITTLE
      ABOUT THE PI BONDS ON THE EDGE AND SIGMAS IN THE MIDDLE.

 SO LETS DERIVE A WAVEFUNCTION.....6-31G*
     USE AN OPTIMAL GEOMETRY AND SEE WHERE ELECTRONS ARE.
 BUT WHAT OF CORRELATION?  ASKS THE WIRY LITTLE SKEPTIC.
     WE'LL THROW IN PERTURBATION AS AN ELECTRON ANTISEPTIC.
 AND WHEN THE PROGRAM GIVES US ANSWERS IN THEM WE CAN TRUST
     SINCE NOBODY CAN MAKE THE STUFF, WE HAVE NO CHOICE, WE MUST.

 SO THEORY GUYS HAVE GOT IT MADE, IN ROOMS FREE OF POLLUTION.
     INSTEAD OF PROBLEMS WITH THE REFLUX, THEY HAVE ONLY SOLUTIONS.
 AND WHEN THE FEDS ANNOUNCE THE LIST OF CARCINOGENIC TERRORS,
     THE THEORISTS SIT SAFELY AT THEIR TERMINALS FIXING ERRORS.
 IN OTHER WORDS, EXPERIMENTALISTS WILL LIKELY DIE OF CANCER
     FROM WORKING HARD YET FRUITLESSLY...TILL THEORY GIVES THE ANSWER.
          -- THOMAS A. HOLME, 1983
 Job cpu time:       0 days  0 hours  0 minutes  4.1 seconds.
 Elapsed time:       0 days  0 hours  0 minutes  4.4 seconds.
 File lengths (MBytes):  RWF=    272 Int=      0 D2E=      0 Chk=     32 Scr=     32
 Normal termination of Gaussian 16 at Thu Dec 29 01:34:37 2022.
