 Entering Gaussian System, Link 0=g16
 Initial command:
 /software/gaussian/g16-c01/avx2/g16/l1.exe "/gpfs/fs2/scratch/bweight/software/many_molecule_many_mode_NAMD/src/NAMD/TEST_NVT/TRAJ/traj-88/G16/GS_NEW/Gau-13812.inp" -scrdir="/gpfs/fs2/scratch/bweight/software/many_molecule_many_mode_NAMD/src/NAMD/TEST_NVT/TRAJ/traj-88/G16/GS_NEW/"
 Entering Link 1 = /software/gaussian/g16-c01/avx2/g16/l1.exe PID=     13813.
  
 Copyright (c) 1988-2019, Gaussian, Inc.  All Rights Reserved.
  
 This is part of the Gaussian(R) 16 program.  It is based on
 the Gaussian(R) 09 system (copyright 2009, Gaussian, Inc.),
 the Gaussian(R) 03 system (copyright 2003, Gaussian, Inc.),
 the Gaussian(R) 98 system (copyright 1998, Gaussian, Inc.),
 the Gaussian(R) 94 system (copyright 1995, Gaussian, Inc.),
 the Gaussian 92(TM) system (copyright 1992, Gaussian, Inc.),
 the Gaussian 90(TM) system (copyright 1990, Gaussian, Inc.),
 the Gaussian 88(TM) system (copyright 1988, Gaussian, Inc.),
 the Gaussian 86(TM) system (copyright 1986, Carnegie Mellon
 University), and the Gaussian 82(TM) system (copyright 1983,
 Carnegie Mellon University). Gaussian is a federally registered
 trademark of Gaussian, Inc.
  
 This software contains proprietary and confidential information,
 including trade secrets, belonging to Gaussian, Inc.
  
 This software is provided under written license and may be
 used, copied, transmitted, or stored only in accord with that
 written license.
  
 The following legend is applicable only to US Government
 contracts under FAR:
  
                    RESTRICTED RIGHTS LEGEND
  
 Use, reproduction and disclosure by the US Government is
 subject to restrictions as set forth in subparagraphs (a)
 and (c) of the Commercial Computer Software - Restricted
 Rights clause in FAR 52.227-19.
  
 Gaussian, Inc.
 340 Quinnipiac St., Bldg. 40, Wallingford CT 06492
  
  
 ---------------------------------------------------------------
 Warning -- This program may not be used in any manner that
 competes with the business of Gaussian, Inc. or will provide
 assistance to any competitor of Gaussian, Inc.  The licensee
 of this program is prohibited from giving any competitor of
 Gaussian, Inc. access to this program.  By using this program,
 the user acknowledges that Gaussian, Inc. is engaged in the
 business of creating and licensing software in the field of
 computational chemistry and represents and warrants to the
 licensee that it is not a competitor of Gaussian, Inc. and that
 it will not use this program in any manner prohibited above.
 ---------------------------------------------------------------
  

 Cite this work as:
 Gaussian 16, Revision C.01,
 M. J. Frisch, G. W. Trucks, H. B. Schlegel, G. E. Scuseria, 
 M. A. Robb, J. R. Cheeseman, G. Scalmani, V. Barone, 
 G. A. Petersson, H. Nakatsuji, X. Li, M. Caricato, A. V. Marenich, 
 J. Bloino, B. G. Janesko, R. Gomperts, B. Mennucci, H. P. Hratchian, 
 J. V. Ortiz, A. F. Izmaylov, J. L. Sonnenberg, D. Williams-Young, 
 F. Ding, F. Lipparini, F. Egidi, J. Goings, B. Peng, A. Petrone, 
 T. Henderson, D. Ranasinghe, V. G. Zakrzewski, J. Gao, N. Rega, 
 G. Zheng, W. Liang, M. Hada, M. Ehara, K. Toyota, R. Fukuda, 
 J. Hasegawa, M. Ishida, T. Nakajima, Y. Honda, O. Kitao, H. Nakai, 
 T. Vreven, K. Throssell, J. A. Montgomery, Jr., J. E. Peralta, 
 F. Ogliaro, M. J. Bearpark, J. J. Heyd, E. N. Brothers, K. N. Kudin, 
 V. N. Staroverov, T. A. Keith, R. Kobayashi, J. Normand, 
 K. Raghavachari, A. P. Rendell, J. C. Burant, S. S. Iyengar, 
 J. Tomasi, M. Cossi, J. M. Millam, M. Klene, C. Adamo, R. Cammi, 
 J. W. Ochterski, R. L. Martin, K. Morokuma, O. Farkas, 
 J. B. Foresman, and D. J. Fox, Gaussian, Inc., Wallingford CT, 2019.
 
 ******************************************
 Gaussian 16:  ES64L-G16RevC.01  3-Jul-2019
                11-Jan-2023 
 ******************************************
 %oldchk=../GS_OLD/geometry.chk
 %chk=geometry.chk
 %nprocshared=4
 Will use up to    4 processors via shared memory.
 %mem=5GB
 Copying data from "../GS_OLD/geometry.chk" to current chk file "geometry.chk"
 IOpt=  2 FromEx=T IUOpen= 4 IOptOp= 5 NList=   0 IFRang= 0 IUIn= 4 IUOut= 2.
 -------------------------------------------------------
 # WB97XD/6-311G SCF=XQC FORCE nosym pop=full guess=read
 -------------------------------------------------------
 1/10=7,30=1,38=1/1,3;
 2/12=2,15=1,17=6,18=5,40=1/2;
 3/5=4,6=6,11=2,25=1,30=1,71=1,74=-58,116=-2/1,2,3;
 4/5=1/1;
 5/5=2,8=3,13=1,38=6/2,8;
 6/7=3,28=1/1;
 7/29=1,30=1/1,2,3,16;
 1/10=7,30=1/3;
 99//99;
 -----------
 MD Step 999
 -----------
 Symbolic Z-matrix:
 Charge =  0 Multiplicity = 1
 C                    -0.33603  -0.58055   0.00756 
 H                     0.2196   -1.53458  -0.02882 
 H                    -1.42329  -0.58908  -0.02904 
 C                     0.33277   0.57704   0.00576 
 H                    -0.15686   1.55947  -0.03094 
 H                     1.4389    0.64555  -0.03051 
 

 GradGradGradGradGradGradGradGradGradGradGradGradGradGradGradGradGradGrad
 Berny optimization.
 Initialization pass.
 Trust Radius=3.00D-01 FncErr=1.00D-07 GrdErr=1.00D-07 EigMax=2.50D+02 EigMin=1.00D-04
 Number of steps in this run=      2 maximum allowed number of steps=      2.
 GradGradGradGradGradGradGradGradGradGradGradGradGradGradGradGradGradGrad

                          Input orientation:                          
 ---------------------------------------------------------------------
 Center     Atomic      Atomic             Coordinates (Angstroms)
 Number     Number       Type             X           Y           Z
 ---------------------------------------------------------------------
      1          6           0       -0.336033   -0.580551    0.007564
      2          1           0        0.219604   -1.534581   -0.028819
      3          1           0       -1.423286   -0.589080   -0.029039
      4          6           0        0.332773    0.577039    0.005765
      5          1           0       -0.156858    1.559472   -0.030941
      6          1           0        1.438895    0.645551   -0.030506
 ---------------------------------------------------------------------
                    Distance matrix (angstroms):
                    1          2          3          4          5
     1  C    0.000000
     2  H    1.104640   0.000000
     3  H    1.087903   1.895537   0.000000
     4  C    1.336907   2.114933   2.108267   0.000000
     5  H    2.147856   3.116873   2.494017   1.098299   0.000000
     6  H    2.157579   2.497930   3.117114   1.108835   1.838934
                    6
     6  H    0.000000
 Symmetry turned off by external request.
 Stoichiometry    C2H4
 Framework group  C1[X(C2H4)]
 Deg. of freedom    12
 Full point group                 C1      NOp   1
 Rotational constants (GHZ):         143.5962859          29.7117799          24.6290285
 Standard basis: 6-311G (5D, 7F)
    38 basis functions,    72 primitive gaussians,    38 cartesian basis functions
     8 alpha electrons        8 beta electrons
       nuclear repulsion energy        33.0843230450 Hartrees.
 NAtoms=    6 NActive=    6 NUniq=    6 SFac= 1.00D+00 NAtFMM=   60 NAOKFM=F Big=F
 Integral buffers will be    131072 words long.
 Raffenetti 2 integral format.
 Two-electron integral symmetry is turned off.
 Nuclear repulsion after empirical dispersion term =       33.0834829221 Hartrees.
 One-electron integrals computed using PRISM.
 NBasis=    38 RedAO= T EigKep=  6.41D-03  NBF=    38
 NBsUse=    38 1.00D-06 EigRej= -1.00D+00 NBFU=    38
 Initial guess from the checkpoint file:  "geometry.chk"
 B after Tr=    -0.000139   -0.000434   -0.000414
         Rot=    1.000000   -0.000000    0.000000    0.000002 Ang=  -0.00 deg.
 Keep R1 ints in memory in canonical form, NReq=4036876.
 Requested convergence on RMS density matrix=1.00D-08 within  32 cycles.
 Requested convergence on MAX density matrix=1.00D-06.
 Requested convergence on             energy=1.00D-06.
 No special actions if energy rises.
 SCF Done:  E(RwB97XD) =  -78.5557781959     A.U. after    8 cycles
            NFock=  8  Conv=0.74D-08     -V/T= 2.0051
 QCSCF skips out because SCF is already converged.

 **********************************************************************

            Population analysis using the SCF Density.

 **********************************************************************

 Alpha  occ. eigenvalues --  -10.28947 -10.28854  -0.86402  -0.67243  -0.55903
 Alpha  occ. eigenvalues --   -0.50985  -0.43625  -0.35707
 Alpha virt. eigenvalues --    0.07994   0.14102   0.16466   0.17014   0.24100
 Alpha virt. eigenvalues --    0.37423   0.39293   0.39944   0.46433   0.48845
 Alpha virt. eigenvalues --    0.49367   0.59120   0.66545   0.69088   0.77363
 Alpha virt. eigenvalues --    0.77513   0.84051   0.95315   2.23175   2.28999
 Alpha virt. eigenvalues --    2.33278   2.40601   2.67150   2.81724   2.87919
 Alpha virt. eigenvalues --    2.95127   3.14193   3.31777  23.35219  23.70687
     Molecular Orbital Coefficients:
                           1         2         3         4         5
                           O         O         O         O         O
     Eigenvalues --   -10.28947 -10.28854  -0.86402  -0.67243  -0.55903
   1 1   C  1S          0.33457   0.45330  -0.08806   0.06716  -0.00057
   2        2S          0.27552   0.37296  -0.13918   0.10757  -0.00094
   3        2PX         0.00014  -0.00008   0.02603   0.03642   0.13713
   4        2PY         0.00024  -0.00013   0.04702   0.05829  -0.07175
   5        2PZ        -0.00000  -0.00001  -0.00147   0.00222   0.00023
   6        3S          0.00795   0.01225   0.37331  -0.29354   0.00257
   7        3PX        -0.00036   0.00065   0.03431   0.05845   0.21482
   8        3PY        -0.00058   0.00116   0.06159   0.09506  -0.11365
   9        3PZ        -0.00003  -0.00003  -0.00247   0.00397   0.00033
  10        4S         -0.00348  -0.01462   0.19138  -0.22774   0.00189
  11        4PX         0.00066  -0.00205   0.00496   0.02331   0.11169
  12        4PY         0.00112  -0.00353   0.00881   0.03962  -0.06018
  13        4PZ         0.00005   0.00008  -0.00088   0.00200   0.00015
  14 2   H  1S         -0.00006  -0.00003   0.05140  -0.08622   0.10036
  15        2S         -0.00022   0.00023   0.05292  -0.10445   0.12769
  16        3S          0.00145   0.00113  -0.00178  -0.01489   0.04133
  17 3   H  1S         -0.00008  -0.00004   0.05335  -0.09105  -0.10445
  18        2S         -0.00023   0.00021   0.05419  -0.10905  -0.13151
  19        3S          0.00151   0.00116  -0.00175  -0.01610  -0.04245
  20 4   C  1S          0.45320  -0.33473  -0.08726  -0.06791  -0.00020
  21        2S          0.37311  -0.27533  -0.13779  -0.10890  -0.00031
  22        2PX        -0.00009  -0.00014  -0.02758   0.03823   0.11853
  23        2PY        -0.00015  -0.00024  -0.04631   0.06827  -0.07616
  24        2PZ        -0.00000   0.00000  -0.00122  -0.00235   0.00025
  25        3S          0.01113  -0.00932   0.36908   0.29752   0.00086
  26        3PX         0.00014   0.00075  -0.03458   0.06187   0.18558
  27        3PY         0.00026   0.00128  -0.05800   0.10977  -0.11802
  28        3PZ        -0.00004   0.00001  -0.00209  -0.00421   0.00037
  29        4S         -0.00737   0.01297   0.18903   0.23583  -0.00066
  30        4PX        -0.00005  -0.00210  -0.00539   0.02700   0.10166
  31        4PY        -0.00014  -0.00365  -0.00875   0.04627  -0.06361
  32        4PZ         0.00006  -0.00005  -0.00085  -0.00216   0.00019
  33 5   H  1S         -0.00008  -0.00000   0.05073   0.09443  -0.09200
  34        2S         -0.00015  -0.00027   0.05157   0.11209  -0.11575
  35        3S          0.00171  -0.00066  -0.00111   0.01694  -0.03722
  36 6   H  1S         -0.00007  -0.00001   0.04935   0.09219   0.08625
  37        2S         -0.00016  -0.00029   0.05081   0.11005   0.10909
  38        3S          0.00166  -0.00065  -0.00111   0.01625   0.03545
                           6         7         8         9        10
                           O         O         O         V         V
     Eigenvalues --    -0.50985  -0.43625  -0.35707   0.07994   0.14102
   1 1   C  1S         -0.00336   0.00028  -0.00116   0.00316  -0.03441
   2        2S         -0.00499   0.00048  -0.00188   0.00523  -0.05521
   3        2PX         0.09393  -0.11149  -0.00382   0.00166  -0.03048
   4        2PY         0.16880   0.06671  -0.00662   0.00300  -0.06628
   5        2PZ         0.00584   0.00005   0.17942  -0.18899  -0.00326
   6        3S          0.01947  -0.00112   0.00550  -0.01579   0.12060
   7        3PX         0.13607  -0.17823  -0.00538   0.00252  -0.03514
   8        3PY         0.24673   0.10731  -0.00934   0.00447  -0.08173
   9        3PZ         0.00927   0.00013   0.28828  -0.27773  -0.00511
  10        4S         -0.05561  -0.00450   0.00799  -0.01884   1.24383
  11        4PX         0.06816  -0.11122  -0.00440   0.01435  -0.18941
  12        4PY         0.12537   0.06777  -0.00771   0.02489  -0.39297
  13        4PZ         0.00528   0.00015   0.26672  -0.69551  -0.01875
  14 2   H  1S         -0.08150  -0.11609   0.00016   0.00490  -0.01848
  15        2S         -0.11318  -0.18016   0.00229   0.00788  -0.04977
  16        3S         -0.04228  -0.08367   0.00134   0.02111  -0.85962
  17 3   H  1S         -0.07918   0.11310   0.00009   0.00491  -0.01354
  18        2S         -0.10913   0.17429   0.00221   0.00793  -0.03832
  19        3S         -0.04036   0.08059   0.00131   0.02048  -0.77732
  20 4   C  1S         -0.00870  -0.00056  -0.00090  -0.00295  -0.03516
  21        2S         -0.01364  -0.00093  -0.00147  -0.00489  -0.05644
  22        2PX        -0.09931   0.12390   0.00383   0.00189   0.04130
  23        2PY        -0.16101  -0.07345   0.00686   0.00330   0.05976
  24        2PZ         0.00607   0.00019   0.17910   0.18920  -0.00298
  25        3S          0.04374   0.00267   0.00435   0.01473   0.12410
  26        3PX        -0.14710   0.19812   0.00537   0.00290   0.05121
  27        3PY        -0.23645  -0.11652   0.00963   0.00510   0.07097
  28        3PZ         0.00959   0.00027   0.28696   0.27776  -0.00457
  29        4S         -0.02682   0.00355   0.00736   0.01566   1.22330
  30        4PX        -0.07686   0.12656   0.00411   0.01467   0.26737
  31        4PY        -0.12211  -0.07354   0.00750   0.02572   0.40564
  32        4PZ         0.00553   0.00015   0.26718   0.69634  -0.01798
  33 5   H  1S         -0.07316  -0.12422   0.00028  -0.00451  -0.01044
  34        2S         -0.09934  -0.19303   0.00245  -0.00742  -0.03470
  35        3S         -0.03695  -0.09070   0.00139  -0.01919  -0.79765
  36 6   H  1S         -0.08056   0.12383   0.00020  -0.00449  -0.01508
  37        2S         -0.11001   0.19352   0.00233  -0.00740  -0.04671
  38        3S         -0.04119   0.09094   0.00131  -0.01941  -0.87950
                          11        12        13        14        15
                           V         V         V         V         V
     Eigenvalues --     0.16466   0.17014   0.24100   0.37423   0.39293
   1 1   C  1S          0.00030  -0.04481   0.00011   0.00974   0.00161
   2        2S          0.00046  -0.07304   0.00017   0.01340   0.00258
   3        2PX         0.09828  -0.02165   0.09951  -0.03573  -0.02536
   4        2PY        -0.05488  -0.03547  -0.05708  -0.06607   0.00874
   5        2PZ        -0.00009  -0.00758  -0.00003  -0.00544  -0.00026
   6        3S         -0.00064   0.16528   0.00014   0.03192  -0.00198
   7        3PX         0.14095  -0.01407   0.10559  -0.04423  -0.10847
   8        3PY        -0.07921  -0.02240  -0.06191  -0.08817   0.04599
   9        3PZ        -0.00013  -0.01051  -0.00011  -0.01115  -0.00028
  10        4S         -0.03447   1.40486  -0.02701  -2.63114  -0.26541
  11        4PX         0.58421  -0.12787   1.16111  -1.56571  -0.55588
  12        4PY        -0.31533  -0.19321  -0.66340  -2.72668   0.08859
  13        4PZ        -0.00032  -0.04947   0.00041  -0.04887  -0.00324
  14 2   H  1S         -0.03045  -0.02505   0.01230  -0.05907   0.07639
  15        2S         -0.08090  -0.01652  -0.02582  -0.67494   0.77776
  16        3S         -1.04371  -0.95722  -1.52230  -0.28825  -0.36320
  17 3   H  1S          0.02818  -0.02588  -0.01515  -0.04989  -0.07655
  18        2S          0.07814  -0.02355   0.01824  -0.60151  -0.76211
  19        3S          1.08363  -1.01966   1.56049  -0.38799   0.25662
  20 4   C  1S          0.00275   0.04298  -0.00011  -0.01987  -0.00039
  21        2S          0.00442   0.06996  -0.00019  -0.03260  -0.00042
  22        2PX         0.09872  -0.02672  -0.10072  -0.04030  -0.03126
  23        2PY        -0.06206  -0.03642   0.05779  -0.07216   0.01126
  24        2PZ         0.00041   0.00738   0.00002   0.00380   0.00051
  25        3S         -0.00932  -0.15518   0.00025   0.04140  -0.00394
  26        3PX         0.14257  -0.02293  -0.11409  -0.09130  -0.10929
  27        3PY        -0.08736  -0.02505   0.06400  -0.16720   0.05509
  28        3PZ         0.00057   0.01016   0.00008   0.00446   0.00107
  29        4S         -0.10931  -1.36805   0.01600   3.32375   0.22479
  30        4PX         0.52651  -0.13917  -1.12915  -1.16844  -0.60505
  31        4PY        -0.33975  -0.19836   0.65498  -2.06661   0.03895
  32        4PZ         0.00266   0.04826  -0.00042   0.03990   0.00420
  33 5   H  1S          0.03180   0.02337   0.00707   0.00998  -0.07915
  34        2S          0.06990   0.01978  -0.03097   0.06187  -0.77187
  35        3S          1.11217   0.93030  -1.54590   0.45356   0.46680
  36 6   H  1S         -0.03068   0.02568  -0.00550   0.00351   0.08813
  37        2S         -0.06919   0.02070   0.03254   0.00170   0.90113
  38        3S         -0.96299   0.99558   1.52429   0.46975  -0.42656
                          16        17        18        19        20
                           V         V         V         V         V
     Eigenvalues --     0.39944   0.46433   0.48845   0.49367   0.59120
   1 1   C  1S         -0.01873  -0.00968   0.04748  -0.00064  -0.00064
   2        2S         -0.03294  -0.02431   0.07994  -0.00079  -0.00116
   3        2PX         0.02682   0.06007  -0.01597   0.00161   0.00236
   4        2PY         0.05030   0.10485  -0.02060   0.00238   0.00359
   5        2PZ         0.00029   0.00072  -0.00650  -0.15194  -0.19248
   6        3S          0.07893   0.33167  -0.11707  -0.00922  -0.00028
   7        3PX         0.10120   0.24120   0.01849   0.00103   0.00789
   8        3PY         0.19679   0.41707   0.04525   0.00074   0.01220
   9        3PZ        -0.00430   0.00536  -0.02941  -0.62840  -0.68438
  10        4S          2.67686  -0.31091  -3.08196   0.11764   0.07770
  11        4PX         0.23123  -0.28022  -0.79656   0.03715   0.02504
  12        4PY         0.46635  -0.52485  -1.39029   0.06597   0.04268
  13        4PZ        -0.00200   0.00204   0.10321   0.68532   1.24028
  14 2   H  1S         -0.02444   0.03838   0.07432  -0.00325  -0.00193
  15        2S         -0.51490   0.37293   0.88329  -0.03148  -0.01367
  16        3S          0.30917  -0.11815  -0.64914   0.03801   0.02684
  17 3   H  1S         -0.03504   0.04081   0.07197  -0.00316  -0.00182
  18        2S         -0.61602   0.40225   0.85620  -0.03074  -0.01177
  19        3S          0.33143  -0.11265  -0.60501   0.03648   0.02592
  20 4   C  1S         -0.00053  -0.00026  -0.05059   0.00369   0.00078
  21        2S         -0.00450  -0.00819  -0.08754   0.00664   0.00145
  22        2PX         0.00770  -0.05641  -0.02369   0.00004   0.00229
  23        2PY         0.01679  -0.09750  -0.04482   0.00015   0.00436
  24        2PZ        -0.00411   0.00191  -0.00671  -0.15226   0.19243
  25        3S          0.07998   0.29894   0.20965  -0.02424  -0.00244
  26        3PX        -0.04707  -0.23746  -0.04038  -0.00037   0.00808
  27        3PY        -0.06519  -0.41423  -0.07501  -0.00079   0.01509
  28        3PZ        -0.01180   0.00810  -0.02519  -0.63019   0.68337
  29        4S         -0.86261  -0.60023   3.16562  -0.14654  -0.07090
  30        4PX         1.24434   0.30016  -0.62833   0.02152   0.02385
  31        4PY         2.27130   0.48828  -1.07202   0.03610   0.04200
  32        4PZ        -0.03682   0.01586  -0.03883   0.69371  -1.23893
  33 5   H  1S         -0.04851   0.06063  -0.06681   0.00312   0.00176
  34        2S         -0.85792   0.62196  -0.84592   0.04598   0.00732
  35        3S         -0.20343  -0.22573   0.54883  -0.01423  -0.02568
  36 6   H  1S         -0.03740   0.05880  -0.06781   0.00320   0.00184
  37        2S         -0.73383   0.59789  -0.85193   0.04616   0.00852
  38        3S         -0.23703  -0.23964   0.57740  -0.01608  -0.02612
                          21        22        23        24        25
                           V         V         V         V         V
     Eigenvalues --     0.66545   0.69088   0.77363   0.77513   0.84051
   1 1   C  1S          0.00107   0.00076   0.07148   0.05300   0.00125
   2        2S          0.00222   0.00169   0.15142   0.11326   0.00285
   3        2PX        -0.14196  -0.19013   0.01265   0.11770  -0.00868
   4        2PY         0.08349   0.11572   0.01677   0.18855   0.01608
   5        2PZ        -0.00002  -0.00011   0.00242   0.00502   0.00025
   6        3S         -0.01852  -0.02142  -1.11693  -1.04517  -0.02984
   7        3PX        -0.64725  -0.65561  -0.02206   0.48530  -0.22746
   8        3PY         0.37573   0.39927  -0.06088   0.76885   0.17669
   9        3PZ        -0.00021  -0.00050   0.00867   0.01747   0.00107
  10        4S          0.03643   0.09427   1.47827   2.12683  -0.02474
  11        4PX         1.11046   0.70805  -0.08212  -0.80561   4.48121
  12        4PY        -0.64422  -0.44132  -0.11261  -0.98630  -2.57260
  13        4PZ        -0.00035  -0.00216  -0.01021  -0.06298   0.00202
  14 2   H  1S          0.02647   0.05775   0.02016   0.02757  -0.02541
  15        2S          0.16414   0.61514   0.09071   0.06364  -1.54500
  16        3S         -1.08379  -1.04869  -0.42863  -0.98345  -1.21595
  17 3   H  1S         -0.02567  -0.05699   0.02052   0.02858   0.02951
  18        2S         -0.18507  -0.65875   0.11064   0.01330   1.59464
  19        3S          1.07220   1.00221  -0.47256  -1.17013   1.21261
  20 4   C  1S          0.00134   0.00064   0.09001   0.00249   0.00086
  21        2S          0.00272   0.00123   0.19131   0.00454   0.00172
  22        2PX        -0.14183   0.19326  -0.07468   0.07920   0.01217
  23        2PY         0.08148  -0.10665  -0.13435   0.14674   0.00220
  24        2PZ         0.00001   0.00017   0.00504  -0.00289  -0.00023
  25        3S         -0.01895  -0.00109  -1.54005   0.12608  -0.00730
  26        3PX        -0.65178   0.66408  -0.24446   0.37104   0.23986
  27        3PY         0.37769  -0.36309  -0.44562   0.68756  -0.09362
  28        3PZ        -0.00009   0.00059   0.01773  -0.01051  -0.00078
  29        4S          0.00993  -0.05396   2.57127  -0.77721   0.00941
  30        4PX         1.25693  -0.78742   0.41465  -0.35165  -4.18315
  31        4PY        -0.71939   0.42885   0.75875  -0.96781   2.38007
  32        4PZ         0.00035   0.00149  -0.04606   0.04578  -0.00158
  33 5   H  1S         -0.02243   0.05668   0.03341  -0.00824  -0.02366
  34        2S         -0.11506   0.59045   0.10500   0.05876  -1.42161
  35        3S          1.07657  -1.03386  -1.02072   0.66852  -1.10898
  36 6   H  1S          0.02339  -0.05632   0.03329  -0.00732   0.02309
  37        2S          0.11096  -0.55296   0.08806  -0.01240   1.40186
  38        3S         -1.08198   1.05523  -0.97108   0.54554   1.12123
                          26        27        28        29        30
                           V         V         V         V         V
     Eigenvalues --     0.95315   2.23175   2.28999   2.33278   2.40601
   1 1   C  1S          0.09573  -0.00974  -0.01413   0.00056   0.00058
   2        2S          0.19894   0.00210  -0.01376   0.00115   0.00072
   3        2PX        -0.09176  -0.08000  -0.13233   0.34923   0.40373
   4        2PY        -0.15906  -0.14956  -0.23316  -0.19842  -0.22883
   5        2PZ         0.00018  -0.01525  -0.02110  -0.00011   0.00062
   6        3S         -1.54096  -0.18586  -0.03798  -0.00168   0.00523
   7        3PX        -0.23641   0.07693   0.20793  -0.42288  -0.56452
   8        3PY        -0.39992   0.16091   0.38341   0.24358   0.32218
   9        3PZ        -0.00290   0.01545   0.02637   0.00031  -0.00066
  10        4S          5.71381  -0.09752  -0.88218   0.00549   0.02526
  11        4PX         1.21533   0.05591  -0.18533  -0.05133  -0.96123
  12        4PY         1.98550   0.06349  -0.36115   0.01893   0.52871
  13        4PZ        -0.02091   0.00322   0.00908  -0.00044  -0.00154
  14 2   H  1S          0.01587  -0.70494  -0.79763  -0.71761  -0.63961
  15        2S         -0.29652   1.00031   1.19323   1.10705   1.42826
  16        3S         -0.09123  -0.30699  -0.48154  -0.48162  -0.37034
  17 3   H  1S          0.01607  -0.69757  -0.79138   0.71100   0.66315
  18        2S         -0.25811   0.99330   1.19030  -1.10297  -1.48016
  19        3S         -0.06961  -0.28110  -0.45693   0.46921   0.35906
  20 4   C  1S         -0.09401  -0.01094   0.01253   0.00047  -0.00036
  21        2S         -0.19502  -0.00071   0.01302   0.00070  -0.00060
  22        2PX        -0.09279   0.13452  -0.12419   0.29958  -0.41884
  23        2PY        -0.16000   0.23193  -0.20811  -0.17387   0.24133
  24        2PZ         0.00034  -0.01664   0.01959   0.00017  -0.00029
  25        3S          1.50620  -0.16753   0.01522   0.00006  -0.00046
  26        3PX        -0.22911  -0.16987   0.21346  -0.36963   0.58605
  27        3PY        -0.40223  -0.28744   0.34907   0.21170  -0.33742
  28        3PZ         0.00410   0.01766  -0.02498  -0.00013   0.00035
  29        4S         -5.69802  -0.18566   0.89590   0.01404  -0.00750
  30        4PX         1.09796  -0.01790  -0.20035   0.11012   0.85626
  31        4PY         1.99859  -0.03911  -0.31552  -0.06161  -0.50537
  32        4PZ         0.01441   0.00562  -0.00758  -0.00015   0.00123
  33 5   H  1S         -0.01771  -0.79218   0.67153   0.69262  -0.70031
  34        2S          0.28483   1.15211  -1.02843  -1.00289   1.48216
  35        3S          0.05665  -0.35078   0.39541   0.49804  -0.43038
  36 6   H  1S         -0.01751  -0.78592   0.69436  -0.68150   0.69457
  37        2S          0.31579   1.14141  -1.05645   0.98347  -1.46426
  38        3S          0.07156  -0.35344   0.42536  -0.49598   0.43864
                          31        32        33        34        35
                           V         V         V         V         V
     Eigenvalues --     2.67150   2.81724   2.87919   2.95127   3.14193
   1 1   C  1S          0.00058  -0.00286  -0.01337   0.00014  -0.00940
   2        2S          0.00048  -0.00829  -0.04438  -0.00003  -0.02923
   3        2PX         0.00591  -0.08131  -0.46585  -0.73309   0.44965
   4        2PY         0.01007  -0.14398  -0.84513   0.41132   0.78562
   5        2PZ        -0.92546   0.92575  -0.15715  -0.00106   0.00774
   6        3S         -0.00210   0.06890   0.39077   0.00305   0.24804
   7        3PX        -0.00461   0.14157   0.82968   0.88090  -0.43435
   8        3PY        -0.00822   0.24776   1.47304  -0.47896  -0.75592
   9        3PZ         0.94076  -1.13208   0.19731   0.00158  -0.00988
  10        4S          0.01566  -0.15965  -0.87874  -0.00967  -0.48654
  11        4PX        -0.00192  -0.11388  -0.71033  -0.67281   0.21811
  12        4PY        -0.00208  -0.20002  -1.26483   0.35415   0.38044
  13        4PZ        -0.33894   0.61264  -0.12532  -0.00132   0.00603
  14 2   H  1S          0.01388   0.02291   0.26786  -0.37981  -0.21464
  15        2S         -0.01606  -0.01498  -0.22780   0.39564   0.16422
  16        3S         -0.00287  -0.04528  -0.29290   0.26451   0.05826
  17 3   H  1S          0.01400   0.02190   0.25517   0.38042  -0.21516
  18        2S         -0.01630  -0.01256  -0.20446  -0.39110   0.16207
  19        3S         -0.00365  -0.04646  -0.29841  -0.28604   0.06720
  20 4   C  1S          0.00057   0.00275   0.01325   0.00057  -0.00750
  21        2S          0.00053   0.00860   0.04724   0.00135  -0.02323
  22        2PX        -0.00827  -0.07344  -0.40794  -0.80410  -0.50028
  23        2PY        -0.01435  -0.12995  -0.72442   0.44342  -0.89258
  24        2PZ        -0.92393  -0.92673   0.15977   0.00096   0.01476
  25        3S         -0.00282  -0.07405  -0.42716  -0.01023   0.19900
  26        3PX         0.00830   0.13356   0.76914   0.96139   0.53527
  27        3PY         0.01412   0.23522   1.35804  -0.52250   0.96567
  28        3PZ         0.93893   1.13278  -0.20146  -0.00114  -0.01872
  29        4S          0.01685   0.16083   0.89412   0.02955  -0.37756
  30        4PX        -0.00053  -0.11378  -0.70989  -0.69659  -0.32288
  31        4PY        -0.00110  -0.19856  -1.23817   0.37284  -0.59452
  32        4PZ        -0.33795  -0.61240   0.12889   0.00073   0.01460
  33 5   H  1S          0.01303  -0.03046  -0.29250   0.41271  -0.26698
  34        2S         -0.01598   0.02437   0.26424  -0.41978   0.21007
  35        3S         -0.00195   0.04371   0.28646  -0.25130   0.12885
  36 6   H  1S          0.01314  -0.03084  -0.29075  -0.42522  -0.25142
  37        2S         -0.01648   0.02581   0.26996   0.43204   0.19556
  38        3S         -0.00142   0.04135   0.26993   0.25249   0.11767
                          36        37        38
                           V         V         V
     Eigenvalues --     3.31777  23.35219  23.70687
   1 1   C  1S         -0.00055  -1.42106  -1.44537
   2        2S         -0.00077   1.51558   1.56310
   3        2PX         0.78386  -0.00649   0.01206
   4        2PY        -0.43435  -0.01032   0.02137
   5        2PZ         0.00085  -0.00062  -0.00027
   6        3S          0.00008  -0.29783  -0.39828
   7        3PX        -1.11919   0.02383  -0.05581
   8        3PY         0.61514   0.03877  -0.09749
   9        3PZ        -0.00138   0.00176   0.00081
  10        4S         -0.01227   0.27796   0.76841
  11        4PX         1.95530  -0.02517   0.13374
  12        4PY        -1.07694  -0.04153   0.23026
  13        4PZ         0.00224  -0.00298  -0.00343
  14 2   H  1S          0.55109   0.01225   0.00613
  15        2S         -0.85741   0.00800  -0.01430
  16        3S         -0.44934  -0.08310  -0.03876
  17 3   H  1S         -0.56688   0.01466   0.00785
  18        2S          0.87910   0.00731  -0.01459
  19        3S          0.48123  -0.08617  -0.03918
  20 4   C  1S          0.00011  -1.44055   1.42582
  21        2S         -0.00018   1.53636  -1.54195
  22        2PX        -0.71437   0.00611   0.01259
  23        2PY         0.40892   0.01107   0.02132
  24        2PZ        -0.00065  -0.00063   0.00016
  25        3S          0.00536  -0.30112   0.39248
  26        3PX         1.01700  -0.02275  -0.05666
  27        3PY        -0.59305  -0.04070  -0.09714
  28        3PZ         0.00104   0.00180  -0.00041
  29        4S         -0.01740   0.27589  -0.76384
  30        4PX        -1.78177   0.02459   0.13116
  31        4PY         1.04994   0.04512   0.22733
  32        4PZ        -0.00174  -0.00290   0.00256
  33 5   H  1S          0.49205   0.01408  -0.00541
  34        2S         -0.76387   0.00770   0.01408
  35        3S         -0.43762  -0.08381   0.03778
  36 6   H  1S         -0.48644   0.01250  -0.00417
  37        2S          0.75681   0.00892   0.01376
  38        3S          0.42357  -0.08176   0.03723
     Density Matrix:
                           1         2         3         4         5
   1 1   C  1S          0.65940
   2        2S          0.56149   0.49197
   3        2PX        -0.00052  -0.00069   0.08415
   4        2PY        -0.00141  -0.00197   0.00390   0.08748
   5        2PZ         0.00009   0.00014  -0.00014  -0.00031   0.06447
   6        3S         -0.08890  -0.15377   0.00263   0.00687  -0.00019
   7        3PX         0.00091   0.00140   0.13030   0.00144  -0.00010
   8        3PY         0.00113   0.00174   0.00145   0.13092  -0.00027
   9        3PZ         0.00019   0.00033  -0.00024  -0.00049   0.10358
  10        4S         -0.07953  -0.11458  -0.01561  -0.02830   0.00065
  11        4PX         0.00020   0.00148   0.07022  -0.00461  -0.00065
  12        4PY         0.00060   0.00301  -0.00466   0.06555  -0.00117
  13        4PZ        -0.00013  -0.00030  -0.00094  -0.00160   0.09578
  14 2   H  1S         -0.02033  -0.03240   0.03450  -0.06262  -0.00139
  15        2S         -0.02278  -0.03645   0.04906  -0.08780  -0.00108
  16        3S          0.00050  -0.00081   0.02086  -0.03329  -0.00006
  17 3   H  1S         -0.02100  -0.03341  -0.07259  -0.00225  -0.00149
  18        2S         -0.02318  -0.03702  -0.10057  -0.00236  -0.00117
  19        3S          0.00057  -0.00073  -0.03847   0.00116  -0.00008
  20 4   C  1S          0.00609   0.00982  -0.01086  -0.01878  -0.00047
  21        2S          0.00979   0.01530  -0.01738  -0.03006  -0.00077
  22        2PX         0.01040   0.01662  -0.01246  -0.03219   0.00053
  23        2PY         0.01812   0.02897  -0.03225  -0.04971   0.00098
  24        2PZ        -0.00055  -0.00090  -0.00044  -0.00072   0.06433
  25        3S         -0.02635  -0.04000   0.04871   0.08434   0.00231
  26        3PX         0.01604   0.02486  -0.01825  -0.04597   0.00069
  27        3PY         0.02793   0.04329  -0.04590  -0.07122   0.00128
  28        3PZ        -0.00094  -0.00151  -0.00077  -0.00127   0.10307
  29        4S          0.00538   0.00398   0.02095   0.03668   0.00282
  30        4PX         0.00310   0.00640  -0.01313  -0.02106   0.00077
  31        4PY         0.00519   0.01083  -0.02113  -0.03743   0.00146
  32        4PZ        -0.00080  -0.00129  -0.00119  -0.00201   0.09593
  33 5   H  1S          0.00422   0.00693  -0.00176  -0.01229  -0.00054
  34        2S          0.00631   0.01049   0.00347  -0.02480  -0.00001
  35        3S          0.00325   0.00474   0.00424  -0.01738   0.00012
  36 6   H  1S          0.00415   0.00681  -0.00981  -0.00767  -0.00055
  37        2S          0.00618   0.01030  -0.02326  -0.00940  -0.00004
  38        3S          0.00318   0.00466  -0.01718  -0.00509   0.00009
                           6         7         8         9        10
   6        3S          0.45231
   7        3PX        -0.00195   0.20210
   8        3PY        -0.00113  -0.00450   0.19645
   9        3PZ        -0.00064  -0.00019  -0.00041   0.16642
  10        4S          0.27412  -0.02631  -0.04874   0.00082   0.18380
  11        4PX        -0.00659   0.10929  -0.01050  -0.00107  -0.01489
  12        4PY        -0.01242  -0.01058   0.09884  -0.00187  -0.02948
  13        4PZ         0.00132  -0.00124  -0.00211   0.15390   0.00243
  14 2   H  1S          0.08659   0.05577  -0.09801  -0.00232   0.06944
  15        2S          0.09751   0.07968  -0.13692  -0.00183   0.08256
  16        3S          0.00623   0.03420  -0.05129  -0.00011   0.01169
  17 3   H  1S          0.08941  -0.11372  -0.00180  -0.00244   0.06929
  18        2S          0.09919  -0.15738  -0.00065  -0.00193   0.08052
  19        3S          0.00625  -0.05997   0.00373  -0.00012   0.01025
  20 4   C  1S         -0.02663  -0.01693  -0.02931  -0.00080   0.00513
  21        2S         -0.04031  -0.02631  -0.04558  -0.00130   0.00382
  22        2PX        -0.04653  -0.01773  -0.04555   0.00092  -0.01753
  23        2PY        -0.08109  -0.04563  -0.07076   0.00167  -0.03042
  24        2PZ         0.00268  -0.00059  -0.00096   0.10336   0.00279
  25        3S          0.10260   0.07136   0.12387   0.00386   0.00114
  26        3PX        -0.06727  -0.02612  -0.06484   0.00120  -0.02607
  27        3PY        -0.11716  -0.06477  -0.10131   0.00222  -0.04518
  28        3PZ         0.00445  -0.00105  -0.00171   0.16560   0.00464
  29        4S          0.00191   0.03164   0.05570   0.00468  -0.03232
  30        4PX        -0.02263  -0.01962  -0.02949   0.00129  -0.00644
  31        4PY        -0.03863  -0.02962  -0.05401   0.00241  -0.01020
  32        4PZ         0.00379  -0.00165  -0.00279   0.15414   0.00431
  33 5   H  1S         -0.02060  -0.00064  -0.01765  -0.00079  -0.01468
  34        2S         -0.03132   0.00866  -0.03653   0.00008  -0.01892
  35        3S         -0.01217   0.00817  -0.02619   0.00020  -0.00332
  36 6   H  1S         -0.02024  -0.01485  -0.00918  -0.00080  -0.01493
  37        2S         -0.03080  -0.03573  -0.01041   0.00005  -0.01972
  38        3S         -0.01197  -0.02659  -0.00594   0.00017  -0.00390
                          11        12        13        14        15
  11        4PX         0.06016
  12        4PY        -0.00941   0.05131
  13        4PZ        -0.00154  -0.00265   0.14235
  14 2   H  1S          0.03362  -0.05418  -0.00121   0.08053
  15        2S          0.04880  -0.07555  -0.00050   0.10936   0.15058
  16        3S          0.02135  -0.02815   0.00020   0.03700   0.05320
  17 3   H  1S         -0.06300   0.00177  -0.00124  -0.01314  -0.02484
  18        2S         -0.08759   0.00437  -0.00050  -0.02470  -0.04316
  19        3S         -0.03369   0.00458   0.00022  -0.01806  -0.02756
  20 4   C  1S         -0.00315  -0.00576  -0.00071   0.00421   0.00672
  21        2S         -0.00653  -0.01177  -0.00114   0.00696   0.01122
  22        2PX        -0.01315  -0.01989   0.00127   0.00178  -0.00278
  23        2PY        -0.01996  -0.03667   0.00227   0.01148   0.02433
  24        2PZ        -0.00086  -0.00145   0.09560  -0.00065  -0.00020
  25        3S          0.02311   0.04133   0.00333  -0.02094  -0.03372
  26        3PX        -0.02017  -0.02816   0.00173   0.00101  -0.00725
  27        3PY        -0.02823  -0.05336   0.00311   0.01702   0.03634
  28        3PZ        -0.00141  -0.00240   0.15317  -0.00095  -0.00020
  29        4S          0.00815   0.01563   0.00425  -0.01782  -0.02459
  30        4PX        -0.01474  -0.01236   0.00156  -0.00166  -0.00843
  31        4PY        -0.01248  -0.02951   0.00287   0.01533   0.02733
  32        4PZ        -0.00170  -0.00292   0.14258  -0.00053   0.00033
  33 5   H  1S          0.00201  -0.01574  -0.00040   0.01123   0.02346
  34        2S          0.00925  -0.02739   0.00052   0.02375   0.04453
  35        3S          0.00759  -0.01577   0.00038   0.01658   0.02789
  36 6   H  1S         -0.01447  -0.00563  -0.00040  -0.00913  -0.01839
  37        2S         -0.02806  -0.00491   0.00052  -0.01885  -0.03457
  38        3S         -0.01719  -0.00101   0.00037  -0.01020  -0.01790
                          16        17        18        19        20
  16        3S          0.02145
  17 3   H  1S         -0.01835   0.08222
  18        2S         -0.02775   0.10982   0.14883
  19        3S         -0.01309   0.03624   0.05140   0.02039
  20 4   C  1S          0.00371   0.00430   0.00676   0.00371   0.65947
  21        2S          0.00548   0.00710   0.01126   0.00545   0.56159
  22        2PX        -0.00357   0.00909   0.02238   0.01680   0.00117
  23        2PY         0.01776   0.00742   0.00969   0.00561   0.00174
  24        2PZ         0.00003  -0.00064  -0.00015   0.00007   0.00010
  25        3S         -0.01423  -0.02129  -0.03372  -0.01402  -0.08926
  26        3PX        -0.00708   0.01439   0.03514   0.02620  -0.00049
  27        3PY         0.02671   0.00957   0.01185   0.00702  -0.00113
  28        3PZ         0.00008  -0.00094  -0.00014   0.00013   0.00021
  29        4S         -0.00605  -0.01758  -0.02364  -0.00544  -0.07993
  30        4PX        -0.00706   0.01408   0.02770   0.01713  -0.00022
  31        4PY         0.01604   0.00663   0.00674   0.00196  -0.00022
  32        4PZ         0.00031  -0.00053   0.00035   0.00033  -0.00005
  33 5   H  1S          0.01638  -0.00908  -0.01823  -0.00952  -0.02030
  34        2S          0.02762  -0.01866  -0.03401  -0.01705  -0.02219
  35        3S          0.01473  -0.01009  -0.01757  -0.00901   0.00064
  36 6   H  1S         -0.00970   0.01123   0.02331   0.01600  -0.01996
  37        2S         -0.01752   0.02379   0.04430   0.02710  -0.02212
  38        3S         -0.00928   0.01661   0.02771   0.01446   0.00053
                          21        22        23        24        25
  21        2S          0.49211
  22        2PX         0.00168   0.08300
  23        2PY         0.00247   0.00355   0.08795
  24        2PZ         0.00015   0.00016   0.00023   0.06424
  25        3S         -0.15429  -0.00540  -0.00811  -0.00020   0.45379
  26        3PX        -0.00074   0.12898   0.00172   0.00010  -0.00016
  27        3PY        -0.00172   0.00177   0.13173   0.00010   0.00106
  28        3PZ         0.00035   0.00024   0.00037   0.10293  -0.00071
  29        4S         -0.11540   0.01371   0.02300   0.00074   0.27719
  30        4PX        -0.00149   0.07312  -0.00508   0.00052   0.00628
  31        4PY        -0.00228  -0.00497   0.06705   0.00095   0.01002
  32        4PZ        -0.00016   0.00091   0.00162   0.09578   0.00090
  33 5   H  1S         -0.03232  -0.03364   0.06402  -0.00145   0.08641
  34        2S         -0.03545  -0.04980   0.08854  -0.00111   0.09487
  35        3S         -0.00055  -0.02259   0.03333  -0.00008   0.00554
  36 6   H  1S         -0.03181   0.07146   0.00263  -0.00137   0.08505
  37        2S         -0.03537   0.10130   0.00073  -0.00101   0.09461
  38        3S         -0.00071   0.04044  -0.00315  -0.00005   0.00585
                          26        27        28        29        30
  26        3PX         0.20076
  27        3PY        -0.00272   0.19784
  28        3PZ         0.00013   0.00016   0.16492
  29        4S          0.02525   0.04203   0.00094   0.18471
  30        4PX         0.11425  -0.01052   0.00082   0.01559   0.06608
  31        4PY        -0.01042   0.10120   0.00152   0.02465  -0.01011
  32        4PZ         0.00116   0.00208   0.15347   0.00230   0.00131
  33 5   H  1S         -0.05366   0.10011  -0.00238   0.06689  -0.03435
  34        2S         -0.07989   0.13796  -0.00185   0.07651  -0.05160
  35        3S         -0.03670   0.05127  -0.00013   0.00894  -0.02390
  36 6   H  1S          0.11278   0.00340  -0.00228   0.06723   0.06571
  37        2S          0.15966  -0.00052  -0.00172   0.07827   0.09349
  38        3S          0.06341  -0.00636  -0.00010   0.01003   0.03746
                          31        32        33        34        35
  31        4PY         0.05330
  32        4PZ         0.00243   0.14285
  33 5   H  1S          0.05569  -0.00122   0.08147
  34        2S          0.07689  -0.00046   0.11019   0.15152
  35        3S          0.02871   0.00022   0.03788   0.05467   0.02254
  36 6   H  1S         -0.00184  -0.00120  -0.01243  -0.02601  -0.01992
  37        2S         -0.00614  -0.00043  -0.02611  -0.04818  -0.03147
  38        3S         -0.00628   0.00022  -0.02013  -0.03160  -0.01553
                          36        37        38
  36 6   H  1S          0.08040
  37        2S          0.10978   0.15230
  38        3S          0.03816   0.05547   0.02299
    Full Mulliken population analysis:
                           1         2         3         4         5
   1 1   C  1S          0.65940
   2        2S          0.49324   0.49197
   3        2PX         0.00000   0.00000   0.08415
   4        2PY         0.00000   0.00000   0.00000   0.08748
   5        2PZ         0.00000   0.00000   0.00000   0.00000   0.06447
   6        3S         -0.02926  -0.06440   0.00000   0.00000   0.00000
   7        3PX         0.00000   0.00000   0.08198   0.00000   0.00000
   8        3PY         0.00000   0.00000   0.00000   0.08236   0.00000
   9        3PZ         0.00000   0.00000   0.00000   0.00000   0.06516
  10        4S         -0.01223  -0.02144   0.00000   0.00000   0.00000
  11        4PX         0.00000   0.00000   0.01547   0.00000   0.00000
  12        4PY         0.00000   0.00000   0.00000   0.01444   0.00000
  13        4PZ         0.00000   0.00000   0.00000   0.00000   0.02109
  14 2   H  1S         -0.00022  -0.00031   0.00173   0.00540   0.00000
  15        2S         -0.00163  -0.00312   0.00426   0.01309   0.00001
  16        3S          0.00004  -0.00008   0.00070   0.00192   0.00000
  17 3   H  1S         -0.00025  -0.00036   0.00780   0.00000   0.00001
  18        2S         -0.00173  -0.00330   0.01770   0.00000   0.00001
  19        3S          0.00004  -0.00007   0.00256  -0.00000   0.00000
  20 4   C  1S          0.00000   0.00000  -0.00002  -0.00006   0.00000
  21        2S          0.00000  -0.00000  -0.00002  -0.00006   0.00000
  22        2PX        -0.00002  -0.00002   0.00011   0.00086   0.00000
  23        2PY        -0.00006  -0.00005   0.00086   0.00198   0.00000
  24        2PZ        -0.00000  -0.00000  -0.00000  -0.00000   0.00042
  25        3S         -0.00059  -0.00100   0.00255   0.00764  -0.00000
  26        3PX        -0.00054  -0.00100   0.00019   0.00557   0.00000
  27        3PY        -0.00164  -0.00301   0.00557   0.01070   0.00000
  28        3PZ        -0.00000  -0.00000  -0.00000  -0.00000   0.00614
  29        4S          0.00034   0.00030   0.00095   0.00288  -0.00000
  30        4PX        -0.00018  -0.00045  -0.00071   0.00146   0.00000
  31        4PY        -0.00052  -0.00133   0.00146   0.00096   0.00000
  32        4PZ        -0.00000  -0.00000  -0.00000  -0.00000   0.00904
  33 5   H  1S          0.00000   0.00000  -0.00000  -0.00000   0.00000
  34        2S          0.00001   0.00002   0.00000  -0.00032   0.00000
  35        3S          0.00008   0.00013   0.00001  -0.00070  -0.00000
  36 6   H  1S          0.00000   0.00000  -0.00000  -0.00000   0.00000
  37        2S          0.00001   0.00002  -0.00024  -0.00007   0.00000
  38        3S          0.00007   0.00013  -0.00057  -0.00012  -0.00000
                           6         7         8         9        10
   6        3S          0.45231
   7        3PX         0.00000   0.20210
   8        3PY         0.00000   0.00000   0.19645
   9        3PZ         0.00000   0.00000   0.00000   0.16642
  10        4S          0.21236   0.00000   0.00000   0.00000   0.18380
  11        4PX         0.00000   0.07142   0.00000   0.00000   0.00000
  12        4PY         0.00000   0.00000   0.06459   0.00000   0.00000
  13        4PZ         0.00000   0.00000   0.00000   0.10057   0.00000
  14 2   H  1S          0.01557   0.01054   0.03180   0.00003   0.01822
  15        2S          0.04056   0.01948   0.05749   0.00003   0.04730
  16        3S          0.00286   0.00401   0.01033   0.00000   0.00879
  17 3   H  1S          0.01683   0.04403   0.00001   0.00003   0.01849
  18        2S          0.04233   0.07725   0.00000   0.00003   0.04674
  19        3S          0.00289   0.01392  -0.00001   0.00000   0.00776
  20 4   C  1S         -0.00060  -0.00057  -0.00172   0.00000   0.00032
  21        2S         -0.00101  -0.00106  -0.00317   0.00000   0.00029
  22        2PX         0.00244   0.00019   0.00552   0.00000   0.00080
  23        2PY         0.00735   0.00553   0.01063   0.00000   0.00239
  24        2PZ         0.00000  -0.00000  -0.00000   0.00616   0.00000
  25        3S          0.02193   0.01341   0.04028  -0.00000   0.00043
  26        3PX         0.01264  -0.00127   0.01853   0.00000   0.00402
  27        3PY         0.03809   0.01851   0.02845   0.00000   0.01206
  28        3PZ         0.00000  -0.00000  -0.00000   0.03540   0.00000
  29        4S          0.00072   0.00488   0.01487  -0.00000  -0.02031
  30        4PX         0.00636  -0.00403   0.00584   0.00000   0.00195
  31        4PY         0.01880   0.00586   0.00122   0.00000   0.00535
  32        4PZ         0.00000  -0.00000  -0.00000   0.04931   0.00000
  33 5   H  1S         -0.00006  -0.00000  -0.00019   0.00000  -0.00080
  34        2S         -0.00123   0.00006  -0.00325  -0.00000  -0.00320
  35        3S         -0.00200   0.00011  -0.00424  -0.00000  -0.00120
  36 6   H  1S         -0.00005  -0.00013  -0.00005   0.00000  -0.00079
  37        2S         -0.00118  -0.00256  -0.00052  -0.00000  -0.00329
  38        3S         -0.00194  -0.00352  -0.00054  -0.00000  -0.00140
                          11        12        13        14        15
  11        4PX         0.06016
  12        4PY         0.00000   0.05131
  13        4PZ         0.00000   0.00000   0.14235
  14 2   H  1S          0.00633   0.01750   0.00001   0.08053
  15        2S          0.01548   0.04116   0.00001   0.07725   0.15058
  16        3S          0.00532   0.01205  -0.00000   0.01383   0.04198
  17 3   H  1S          0.02359  -0.00001   0.00002  -0.00001  -0.00064
  18        2S          0.05510  -0.00002   0.00001  -0.00064  -0.00534
  19        3S          0.01656  -0.00002  -0.00000  -0.00200  -0.00798
  20 4   C  1S         -0.00018  -0.00058   0.00000   0.00000   0.00002
  21        2S         -0.00046  -0.00145   0.00000   0.00000   0.00003
  22        2PX        -0.00071   0.00138   0.00000  -0.00000   0.00000
  23        2PY         0.00138   0.00094   0.00000  -0.00000  -0.00035
  24        2PZ        -0.00000  -0.00000   0.00901   0.00000   0.00000
  25        3S          0.00650   0.02011  -0.00000  -0.00007  -0.00146
  26        3PX        -0.00415   0.00557   0.00000  -0.00000   0.00004
  27        3PY         0.00559   0.00121   0.00000  -0.00022  -0.00352
  28        3PZ        -0.00000  -0.00000   0.04900   0.00000   0.00000
  29        4S          0.00247   0.00820  -0.00000  -0.00103  -0.00438
  30        4PX        -0.00711   0.00313   0.00000   0.00001   0.00017
  31        4PY         0.00316  -0.00562   0.00000  -0.00241  -0.01024
  32        4PZ        -0.00000  -0.00000   0.08959   0.00000  -0.00000
  33 5   H  1S          0.00003  -0.00235   0.00000   0.00000   0.00000
  34        2S          0.00028  -0.00989  -0.00000   0.00000   0.00016
  35        3S          0.00029  -0.00730  -0.00000   0.00023   0.00146
  36 6   H  1S         -0.00176  -0.00047   0.00000  -0.00000  -0.00004
  37        2S         -0.00828  -0.00100  -0.00000  -0.00004  -0.00092
  38        3S         -0.00654  -0.00027  -0.00000  -0.00046  -0.00248
                          16        17        18        19        20
  16        3S          0.02145
  17 3   H  1S         -0.00203   0.08222
  18        2S         -0.00804   0.07758   0.14883
  19        3S         -0.00677   0.01354   0.04055   0.02039
  20 4   C  1S          0.00009   0.00000   0.00002   0.00009   0.65947
  21        2S          0.00016   0.00000   0.00003   0.00016   0.49333
  22        2PX         0.00001  -0.00000  -0.00028  -0.00059   0.00000
  23        2PY        -0.00074  -0.00000  -0.00008  -0.00013   0.00000
  24        2PZ        -0.00000   0.00000   0.00000  -0.00000   0.00000
  25        3S         -0.00244  -0.00007  -0.00149  -0.00242  -0.02938
  26        3PX         0.00006  -0.00016  -0.00289  -0.00366   0.00000
  27        3PY        -0.00445  -0.00007  -0.00065  -0.00065   0.00000
  28        3PZ        -0.00000   0.00000   0.00000  -0.00000   0.00000
  29        4S         -0.00226  -0.00103  -0.00425  -0.00204  -0.01229
  30        4PX         0.00018  -0.00187  -0.00872  -0.00674   0.00000
  31        4PY        -0.00755  -0.00058  -0.00141  -0.00051   0.00000
  32        4PZ        -0.00000   0.00000  -0.00000  -0.00000   0.00000
  33 5   H  1S          0.00023  -0.00000  -0.00004  -0.00043  -0.00023
  34        2S          0.00145  -0.00004  -0.00091  -0.00237  -0.00161
  35        3S          0.00248  -0.00046  -0.00245  -0.00288   0.00005
  36 6   H  1S         -0.00044   0.00000   0.00000   0.00022  -0.00021
  37        2S         -0.00242   0.00000   0.00016   0.00142  -0.00157
  38        3S         -0.00295   0.00023   0.00145   0.00243   0.00004
                          21        22        23        24        25
  21        2S          0.49211
  22        2PX         0.00000   0.08300
  23        2PY         0.00000   0.00000   0.08795
  24        2PZ         0.00000   0.00000   0.00000   0.06424
  25        3S         -0.06462   0.00000   0.00000   0.00000   0.45379
  26        3PX         0.00000   0.08115   0.00000   0.00000   0.00000
  27        3PY         0.00000   0.00000   0.08287   0.00000   0.00000
  28        3PZ         0.00000   0.00000   0.00000   0.06475   0.00000
  29        4S         -0.02160   0.00000   0.00000   0.00000   0.21474
  30        4PX         0.00000   0.01610   0.00000   0.00000   0.00000
  31        4PY         0.00000   0.00000   0.01477   0.00000   0.00000
  32        4PZ         0.00000   0.00000   0.00000   0.02109   0.00000
  33 5   H  1S         -0.00032   0.00154   0.00588   0.00000   0.01581
  34        2S         -0.00309   0.00386   0.01377   0.00001   0.03985
  35        3S         -0.00005   0.00067   0.00199   0.00000   0.00255
  36 6   H  1S         -0.00029   0.00699   0.00002   0.00000   0.01512
  37        2S         -0.00300   0.01735   0.00001   0.00001   0.03910
  38        3S         -0.00007   0.00270  -0.00001   0.00000   0.00268
                          26        27        28        29        30
  26        3PX         0.20076
  27        3PY         0.00000   0.19784
  28        3PZ         0.00000   0.00000   0.16492
  29        4S          0.00000   0.00000   0.00000   0.18471
  30        4PX         0.07466   0.00000   0.00000   0.00000   0.06608
  31        4PY         0.00000   0.06613   0.00000   0.00000   0.00000
  32        4PZ         0.00000   0.00000   0.10029   0.00000   0.00000
  33 5   H  1S          0.00909   0.03404   0.00003   0.01767   0.00573
  34        2S          0.01738   0.06023   0.00003   0.04405   0.01450
  35        3S          0.00381   0.01068   0.00000   0.00674   0.00527
  36 6   H  1S          0.04194   0.00008   0.00003   0.01757   0.02451
  37        2S          0.07722  -0.00002   0.00003   0.04469   0.05886
  38        3S          0.01477  -0.00009   0.00000   0.00753   0.01855
                          31        32        33        34        35
  31        4PY         0.05330
  32        4PZ         0.00000   0.14285
  33 5   H  1S          0.01865   0.00002   0.08147
  34        2S          0.04335   0.00001   0.07784   0.15152
  35        3S          0.01269  -0.00000   0.01415   0.04313   0.02254
  36 6   H  1S         -0.00004   0.00001  -0.00001  -0.00082  -0.00237
  37        2S         -0.00024   0.00001  -0.00082  -0.00674  -0.00967
  38        3S         -0.00019  -0.00000  -0.00239  -0.00971  -0.00835
                          36        37        38
  36 6   H  1S          0.08040
  37        2S          0.07755   0.15230
  38        3S          0.01426   0.04376   0.02299
     Gross orbital populations:
                           1
   1 1   C  1S          1.10436
   2        2S          0.88585
   3        2PX         0.22650
   4        2PY         0.23544
   5        2PZ         0.16635
   6        3S          0.79231
   7        3PX         0.56012
   8        3PY         0.55466
   9        3PZ         0.42315
  10        4S          0.50642
  11        4PX         0.25994
  12        4PY         0.21260
  13        4PZ         0.41165
  14 2   H  1S          0.27160
  15        2S          0.46843
  16        3S          0.08777
  17 3   H  1S          0.27679
  18        2S          0.46556
  19        3S          0.08327
  20 4   C  1S          1.10439
  21        2S          0.88584
  22        2PX         0.22304
  23        2PY         0.23689
  24        2PZ         0.16570
  25        3S          0.79293
  26        3PX         0.55374
  27        3PY         0.55773
  28        3PZ         0.42062
  29        4S          0.50413
  30        4PX         0.27353
  31        4PY         0.21505
  32        4PZ         0.41221
  33 5   H  1S          0.27454
  34        2S          0.46833
  35        3S          0.08741
  36 6   H  1S          0.27122
  37        2S          0.46993
  38        3S          0.08998
          Condensed to atoms (all electrons):
               1          2          3          4          5          6
     1  C    5.033038   0.386665   0.387956   0.602458  -0.035702  -0.035053
     2  H    0.386665   0.518665  -0.033434  -0.040356   0.006013  -0.009756
     3  H    0.387956  -0.033434   0.514768  -0.040003  -0.009587   0.005923
     4  C    0.602458  -0.040356  -0.040003   5.055002   0.384657   0.384051
     5  H   -0.035702   0.006013  -0.009587   0.384657   0.525766  -0.040863
     6  H   -0.035053  -0.009756   0.005923   0.384051  -0.040863   0.526825
 Mulliken charges:
               1
     1  C   -0.339362
     2  H    0.172204
     3  H    0.174377
     4  C   -0.345809
     5  H    0.169715
     6  H    0.168874
 Sum of Mulliken charges =  -0.00000
 Mulliken charges with hydrogens summed into heavy atoms:
               1
     1  C    0.007219
     4  C   -0.007219
 Electronic spatial extent (au):  <R**2>=             83.6759
 Charge=             -0.0000 electrons
 Dipole moment (field-independent basis, Debye):
    X=              0.0023    Y=              0.0278    Z=             -0.1209  Tot=              0.1241
 Quadrupole moment (field-independent basis, Debye-Ang):
   XX=            -12.2078   YY=            -12.2159   ZZ=            -15.6632
   XY=              0.0205   XZ=             -0.0007   YZ=             -0.0015
 Traceless Quadrupole moment (field-independent basis, Debye-Ang):
   XX=              1.1545   YY=              1.1464   ZZ=             -2.3009
   XY=              0.0205   XZ=             -0.0007   YZ=             -0.0015
 Octapole moment (field-independent basis, Debye-Ang**2):
  XXX=             -0.3324  YYY=              0.0239  ZZZ=             -0.0540  XYY=              0.2036
  XXY=             -0.0138  XXZ=             -0.1566  XZZ=             -0.0816  YZZ=             -0.0477
  YYZ=             -0.2087  XYZ=             -0.0446
 Hexadecapole moment (field-independent basis, Debye-Ang**3):
 XXXX=            -34.2624 YYYY=            -55.1877 ZZZZ=            -17.8030 XXXY=             -7.2323
 XXXZ=              0.0203 YYYX=            -10.6794 YYYZ=              0.0237 ZZZX=              0.0235
 ZZZY=              0.0357 XXYY=            -16.1799 XXZZ=             -9.9126 YYZZ=            -13.6370
 XXYZ=              0.0078 YYXZ=             -0.0019 ZZXY=             -3.1973
 N-N= 3.308348292209D+01 E-N=-2.478803326874D+02  KE= 7.815581166027D+01
 Orbital energies and kinetic energies (alpha):
                                 1                 2
   1         O               -10.289465         15.975768
   2         O               -10.288538         15.982436
   3         O                -0.864019          1.539856
   4         O                -0.672431          1.270984
   5         O                -0.559033          0.941800
   6         O                -0.509845          1.284084
   7         O                -0.436252          1.043931
   8         O                -0.357065          1.039047
   9         V                 0.079936          1.181724
  10         V                 0.141021          0.588574
  11         V                 0.164664          0.594967
  12         V                 0.170140          0.679095
  13         V                 0.240996          0.583171
  14         V                 0.374232          0.850753
  15         V                 0.392933          0.932883
  16         V                 0.399439          0.783010
  17         V                 0.464326          1.188792
  18         V                 0.488450          1.424413
  19         V                 0.493671          1.301235
  20         V                 0.591198          1.653665
  21         V                 0.665449          1.570775
  22         V                 0.690881          2.148152
  23         V                 0.773631          2.542564
  24         V                 0.775126          2.197245
  25         V                 0.840514          1.083911
  26         V                 0.953150          3.431067
  27         V                 2.231750          3.927688
  28         V                 2.289990          4.031155
  29         V                 2.332783          4.302534
  30         V                 2.406011          4.514624
  31         V                 2.671503          6.301301
  32         V                 2.817241          6.304161
  33         V                 2.879186          6.138065
  34         V                 2.951265          6.226819
  35         V                 3.141928          6.821310
  36         V                 3.317771          6.402587
  37         V                23.352191         60.074129
  38         V                23.706872         60.204576
 Total kinetic energy from orbitals= 7.815581166027D+01
 Calling FoFJK, ICntrl=      2127 FMM=F ISym2X=0 I1Cent= 0 IOpClX= 0 NMat=1 NMatS=1 NMatT=0.
 -------------------------------------------------------------------
 Center     Atomic                   Forces (Hartrees/Bohr)
 Number     Number              X              Y              Z
 -------------------------------------------------------------------
      1        6           0.013244299    0.003168862   -0.005078831
      2        1          -0.011293509    0.009791171    0.002607893
      3        1           0.003857643   -0.004289001    0.002300626
      4        6           0.009304058    0.006983837   -0.005114975
      5        1           0.000048660   -0.010050804    0.002555709
      6        1          -0.015161151   -0.005604064    0.002729579
 -------------------------------------------------------------------
 Cartesian Forces:  Max     0.015161151 RMS     0.007519607

 GradGradGradGradGradGradGradGradGradGradGradGradGradGradGradGradGradGrad
 Berny optimization.
 Search for a local minimum.
 Step number   1 out of a maximum of    2
 All quantities printed in internal units (Hartrees-Bohrs-Radians)
 Second derivative matrix not updated -- first step.
 The second derivative matrix:
                          X1        Y1        Z1        X2        Y2
           X1           0.75408
           Y1           0.10256   0.85361
           Z1           0.00701   0.01089   0.17108
           X2          -0.16110   0.09324   0.00256   0.13873
           Y2           0.09923  -0.27700  -0.00908  -0.11227   0.26599
           Z2           0.00405  -0.01142  -0.05462  -0.00368   0.00942
           X3          -0.35007  -0.00181  -0.00989  -0.00031  -0.00017
           Y3          -0.00759  -0.10965  -0.00244   0.03215   0.01865
           Z3          -0.01268  -0.00236  -0.05627   0.00187   0.00069
           X4          -0.26820  -0.17937  -0.00093   0.02271   0.01320
           Y4          -0.17985  -0.47525  -0.00158  -0.01312  -0.00763
           Z4           0.00160   0.00285  -0.09471  -0.00074  -0.00103
           X5           0.02366  -0.01367   0.00076  -0.00001   0.00001
           Y5           0.01177  -0.00680   0.00104   0.00001  -0.00000
           Z5          -0.00065   0.00040   0.01765   0.00032  -0.00017
           X6           0.00164  -0.00095   0.00048  -0.00001   0.00001
           Y6          -0.02612   0.01509   0.00116   0.00001  -0.00000
           Z6           0.00067  -0.00036   0.01688  -0.00032   0.00017
                          Z2        X3        Y3        Z3        X4
           Z2           0.02844
           X3          -0.00037   0.35018
           Y3           0.00197   0.00210   0.07560
           Z3           0.01045   0.01079   0.00166   0.02961
           X4           0.00063   0.00023  -0.02667  -0.00061   0.71908
           Y4          -0.00034  -0.00013   0.01541   0.00038   0.12045
           Z4           0.01565  -0.00054  -0.00120   0.01630  -0.00649
           X5          -0.00031  -0.00001   0.00001   0.00032  -0.14834
           Y5           0.00019   0.00001  -0.00000  -0.00020   0.09473
           Z5           0.00930   0.00032  -0.00020  -0.00951  -0.00385
           X6          -0.00031  -0.00001   0.00001   0.00032  -0.32548
           Y6           0.00017   0.00001  -0.00000  -0.00017  -0.02234
           Z6          -0.00922  -0.00032   0.00020   0.00943   0.01125
                          Y4        Z4        X5        Y5        Z5
           Y4           0.86785
           Z4          -0.01221   0.17788
           X5           0.08634  -0.00255   0.12679
           Y5          -0.29525   0.00922  -0.10549   0.28577
           Z5           0.01141  -0.05801   0.00343  -0.00982   0.03027
           X6          -0.01368   0.00871  -0.00209  -0.00102   0.00044
           Y6          -0.10513   0.00238   0.03281   0.01629  -0.00163
           Z6           0.00234  -0.05710  -0.00165  -0.00044   0.01031
                          X6        Y6        Z6
           X6           0.32595
           Y6           0.01564   0.07375
           Z6          -0.00964  -0.00191   0.02971
 ITU=  0
     Eigenvalues ---    0.03753   0.04383   0.09157   0.10155   0.13545
     Eigenvalues ---    0.17445   0.26501   0.28991   0.52956   0.70218
     Eigenvalues ---    0.97205   1.56907
 Angle between quadratic step and forces=  35.89 degrees.
 Linear search not attempted -- first point.
 B after Tr=     0.006505    0.005934   -0.012389
         Rot=    1.000000   -0.000065    0.000035   -0.000117 Ang=  -0.02 deg.
 Variable       Old X    -DE/DX   Delta X   Delta X   Delta X     New X
                                 (Linear)    (Quad)   (Total)
    X1       -0.63501   0.01324   0.00000   0.02000   0.02676  -0.60825
    Y1       -1.09708   0.00317   0.00000   0.01890   0.02469  -1.07239
    Z1        0.01429  -0.00508   0.00000  -0.02654  -0.03912  -0.02482
    X2        0.41499  -0.01129   0.00000  -0.04135  -0.03417   0.38082
    Y2       -2.89994   0.00979   0.00000   0.03056   0.03658  -2.86336
    Z2       -0.05446   0.00261   0.00000   0.03254   0.01980  -0.03466
    X3       -2.68962   0.00386   0.00000   0.02947   0.03624  -2.65338
    Y3       -1.11320  -0.00429   0.00000  -0.01960  -0.01428  -1.12748
    Z3       -0.05488   0.00230   0.00000   0.03164   0.01892  -0.03596
    X4        0.62885   0.00930   0.00000   0.00691   0.01316   0.64201
    Y4        1.09045   0.00698   0.00000   0.00569   0.01178   1.10222
    Z4        0.01089  -0.00511   0.00000  -0.02473  -0.03693  -0.02603
    X5       -0.29642   0.00005   0.00000  -0.01772  -0.01189  -0.30831
    Y5        2.94698  -0.01005   0.00000  -0.03453  -0.02866   2.91831
    Z5       -0.05847   0.00256   0.00000   0.03114   0.01911  -0.03936
    X6        2.71912  -0.01516   0.00000  -0.03633  -0.03010   2.68902
    Y6        1.21992  -0.00560   0.00000  -0.03667  -0.03010   1.18982
    Z6       -0.05765   0.00273   0.00000   0.03026   0.01822  -0.03943
         Item               Value     Threshold  Converged?
 Maximum Force            0.015161     0.000450     NO 
 RMS     Force            0.007520     0.000300     NO 
 Maximum Displacement     0.039116     0.001800     NO 
 RMS     Displacement     0.026642     0.001200     NO 
 Predicted change in Energy=-1.538073D-03
 GradGradGradGradGradGradGradGradGradGradGradGradGradGradGradGradGradGrad

 Unable to Open any file for archive entry.
 1\1\GINC-BHD0007\Force\RwB97XD\6-311G\C2H4\BWEIGHT\11-Jan-2023\0\\# WB
 97XD/6-311G SCF=XQC FORCE nosym pop=full guess=read\\MD Step 999\\0,1\
 C,-0.33603296,-0.58055095,0.0075637\H,0.21960359,-1.53458124,-0.028819
 28\H,-1.42328631,-0.5890796,-0.02903914\C,0.33277336,0.57703896,0.0057
 6458\H,-0.15685763,1.55947247,-0.03094102\H,1.43889549,0.64555135,-0.0
 3050554\\Version=ES64L-G16RevC.01\HF=-78.5557782\RMSD=7.379e-09\RMSF=7
 .520e-03\Dipole=0.0009216,0.0109228,-0.047566\Quadrupole=0.8583667,0.8
 523228,-1.7106895,0.0152682,-0.0005496,-0.0011154\PG=C01 [X(C2H4)]\\@
 The archive entry for this job was punched.


 EDUCATION IS NOT TRAINING BUT RATHER THE PROCESS THAT EQUIPS YOU TO
 ENTERTAIN YOURSELF, A FRIEND, OR AN IDEA.  -- WALLACE STERLING
 Job cpu time:       0 days  0 hours  0 minutes 11.6 seconds.
 Elapsed time:       0 days  0 hours  0 minutes  3.3 seconds.
 File lengths (MBytes):  RWF=    272 Int=      0 D2E=      0 Chk=     32 Scr=     32
 Normal termination of Gaussian 16 at Wed Jan 11 19:42:59 2023.
