 Entering Gaussian System, Link 0=g16
 Initial command:
 /software/gaussian/g16-c01/avx2/g16/l1.exe "/gpfs/fs2/scratch/bweight/software/many_molecule_many_mode_NAMD/src/NAMD/TEST_NVT/TRAJ/traj-26/G16/GS_NEW/Gau-11169.inp" -scrdir="/gpfs/fs2/scratch/bweight/software/many_molecule_many_mode_NAMD/src/NAMD/TEST_NVT/TRAJ/traj-26/G16/GS_NEW/"
 Entering Link 1 = /software/gaussian/g16-c01/avx2/g16/l1.exe PID=     11170.
  
 Copyright (c) 1988-2019, Gaussian, Inc.  All Rights Reserved.
  
 This is part of the Gaussian(R) 16 program.  It is based on
 the Gaussian(R) 09 system (copyright 2009, Gaussian, Inc.),
 the Gaussian(R) 03 system (copyright 2003, Gaussian, Inc.),
 the Gaussian(R) 98 system (copyright 1998, Gaussian, Inc.),
 the Gaussian(R) 94 system (copyright 1995, Gaussian, Inc.),
 the Gaussian 92(TM) system (copyright 1992, Gaussian, Inc.),
 the Gaussian 90(TM) system (copyright 1990, Gaussian, Inc.),
 the Gaussian 88(TM) system (copyright 1988, Gaussian, Inc.),
 the Gaussian 86(TM) system (copyright 1986, Carnegie Mellon
 University), and the Gaussian 82(TM) system (copyright 1983,
 Carnegie Mellon University). Gaussian is a federally registered
 trademark of Gaussian, Inc.
  
 This software contains proprietary and confidential information,
 including trade secrets, belonging to Gaussian, Inc.
  
 This software is provided under written license and may be
 used, copied, transmitted, or stored only in accord with that
 written license.
  
 The following legend is applicable only to US Government
 contracts under FAR:
  
                    RESTRICTED RIGHTS LEGEND
  
 Use, reproduction and disclosure by the US Government is
 subject to restrictions as set forth in subparagraphs (a)
 and (c) of the Commercial Computer Software - Restricted
 Rights clause in FAR 52.227-19.
  
 Gaussian, Inc.
 340 Quinnipiac St., Bldg. 40, Wallingford CT 06492
  
  
 ---------------------------------------------------------------
 Warning -- This program may not be used in any manner that
 competes with the business of Gaussian, Inc. or will provide
 assistance to any competitor of Gaussian, Inc.  The licensee
 of this program is prohibited from giving any competitor of
 Gaussian, Inc. access to this program.  By using this program,
 the user acknowledges that Gaussian, Inc. is engaged in the
 business of creating and licensing software in the field of
 computational chemistry and represents and warrants to the
 licensee that it is not a competitor of Gaussian, Inc. and that
 it will not use this program in any manner prohibited above.
 ---------------------------------------------------------------
  

 Cite this work as:
 Gaussian 16, Revision C.01,
 M. J. Frisch, G. W. Trucks, H. B. Schlegel, G. E. Scuseria, 
 M. A. Robb, J. R. Cheeseman, G. Scalmani, V. Barone, 
 G. A. Petersson, H. Nakatsuji, X. Li, M. Caricato, A. V. Marenich, 
 J. Bloino, B. G. Janesko, R. Gomperts, B. Mennucci, H. P. Hratchian, 
 J. V. Ortiz, A. F. Izmaylov, J. L. Sonnenberg, D. Williams-Young, 
 F. Ding, F. Lipparini, F. Egidi, J. Goings, B. Peng, A. Petrone, 
 T. Henderson, D. Ranasinghe, V. G. Zakrzewski, J. Gao, N. Rega, 
 G. Zheng, W. Liang, M. Hada, M. Ehara, K. Toyota, R. Fukuda, 
 J. Hasegawa, M. Ishida, T. Nakajima, Y. Honda, O. Kitao, H. Nakai, 
 T. Vreven, K. Throssell, J. A. Montgomery, Jr., J. E. Peralta, 
 F. Ogliaro, M. J. Bearpark, J. J. Heyd, E. N. Brothers, K. N. Kudin, 
 V. N. Staroverov, T. A. Keith, R. Kobayashi, J. Normand, 
 K. Raghavachari, A. P. Rendell, J. C. Burant, S. S. Iyengar, 
 J. Tomasi, M. Cossi, J. M. Millam, M. Klene, C. Adamo, R. Cammi, 
 J. W. Ochterski, R. L. Martin, K. Morokuma, O. Farkas, 
 J. B. Foresman, and D. J. Fox, Gaussian, Inc., Wallingford CT, 2019.
 
 ******************************************
 Gaussian 16:  ES64L-G16RevC.01  3-Jul-2019
                11-Jan-2023 
 ******************************************
 %oldchk=../GS_OLD/geometry.chk
 %chk=geometry.chk
 %nprocshared=4
 Will use up to    4 processors via shared memory.
 %mem=5GB
 Copying data from "../GS_OLD/geometry.chk" to current chk file "geometry.chk"
 IOpt=  2 FromEx=T IUOpen= 4 IOptOp= 5 NList=   0 IFRang= 0 IUIn= 4 IUOut= 2.
 -------------------------------------------------------
 # WB97XD/6-311G SCF=XQC FORCE nosym pop=full guess=read
 -------------------------------------------------------
 1/10=7,30=1,38=1/1,3;
 2/12=2,15=1,17=6,18=5,40=1/2;
 3/5=4,6=6,11=2,25=1,30=1,71=1,74=-58,116=-2/1,2,3;
 4/5=1/1;
 5/5=2,8=3,13=1,38=6/2,8;
 6/7=3,28=1/1;
 7/29=1,30=1/1,2,3,16;
 1/10=7,30=1/3;
 99//99;
 ------------
 MD Step 1000
 ------------
 Symbolic Z-matrix:
 Charge =  0 Multiplicity = 1
 C                    -0.33701  -0.58283   0.0067 
 H                     0.2269   -1.52355  -0.02023 
 H                    -1.41922  -0.57706  -0.02095 
 C                     0.33236   0.57635   0.00445 
 H                    -0.15129   1.56693  -0.02395 
 H                     1.44337   0.65525  -0.0233 
 

 GradGradGradGradGradGradGradGradGradGradGradGradGradGradGradGradGradGrad
 Berny optimization.
 Initialization pass.
 Trust Radius=3.00D-01 FncErr=1.00D-07 GrdErr=1.00D-07 EigMax=2.50D+02 EigMin=1.00D-04
 Number of steps in this run=      2 maximum allowed number of steps=      2.
 GradGradGradGradGradGradGradGradGradGradGradGradGradGradGradGradGradGrad

                          Input orientation:                          
 ---------------------------------------------------------------------
 Center     Atomic      Atomic             Coordinates (Angstroms)
 Number     Number       Type             X           Y           Z
 ---------------------------------------------------------------------
      1          6           0       -0.337013   -0.582828    0.006696
      2          1           0        0.226902   -1.523548   -0.020226
      3          1           0       -1.419217   -0.577057   -0.020954
      4          6           0        0.332362    0.576346    0.004447
      5          1           0       -0.151292    1.566928   -0.023947
      6          1           0        1.443368    0.655248   -0.023298
 ---------------------------------------------------------------------
                    Distance matrix (angstroms):
                    1          2          3          4          5
     1  C    0.000000
     2  H    1.097124   0.000000
     3  H    1.082572   1.898830   0.000000
     4  C    1.338563   2.102685   2.097382   0.000000
     5  H    2.157980   3.113533   2.490846   1.102715   0.000000
     6  H    2.168753   2.495386   3.116564   1.114150   1.836873
                    6
     6  H    0.000000
 Symmetry turned off by external request.
 Stoichiometry    C2H4
 Framework group  C1[X(C2H4)]
 Deg. of freedom    12
 Full point group                 C1      NOp   1
 Rotational constants (GHZ):         143.5770217          29.6884091          24.6077124
 Standard basis: 6-311G (5D, 7F)
    38 basis functions,    72 primitive gaussians,    38 cartesian basis functions
     8 alpha electrons        8 beta electrons
       nuclear repulsion energy        33.0780967436 Hartrees.
 NAtoms=    6 NActive=    6 NUniq=    6 SFac= 1.00D+00 NAtFMM=   60 NAOKFM=F Big=F
 Integral buffers will be    131072 words long.
 Raffenetti 2 integral format.
 Two-electron integral symmetry is turned off.
 Nuclear repulsion after empirical dispersion term =       33.0772549894 Hartrees.
 One-electron integrals computed using PRISM.
 NBasis=    38 RedAO= T EigKep=  6.43D-03  NBF=    38
 NBsUse=    38 1.00D-06 EigRej= -1.00D+00 NBFU=    38
 Initial guess from the checkpoint file:  "geometry.chk"
 B after Tr=    -0.000153   -0.000257   -0.000538
         Rot=    1.000000    0.000002    0.000000    0.000007 Ang=   0.00 deg.
 Keep R1 ints in memory in canonical form, NReq=4036876.
 Requested convergence on RMS density matrix=1.00D-08 within  32 cycles.
 Requested convergence on MAX density matrix=1.00D-06.
 Requested convergence on             energy=1.00D-06.
 No special actions if energy rises.
 SCF Done:  E(RwB97XD) =  -78.5553293477     A.U. after    8 cycles
            NFock=  8  Conv=0.62D-08     -V/T= 2.0051
 QCSCF skips out because SCF is already converged.

 **********************************************************************

            Population analysis using the SCF Density.

 **********************************************************************

 Alpha  occ. eigenvalues --  -10.29015 -10.28791  -0.86390  -0.67252  -0.55993
 Alpha  occ. eigenvalues --   -0.50910  -0.43647  -0.35679
 Alpha virt. eigenvalues --    0.07976   0.14096   0.16492   0.17025   0.24075
 Alpha virt. eigenvalues --    0.37113   0.39381   0.40117   0.46408   0.48915
 Alpha virt. eigenvalues --    0.49385   0.59104   0.66582   0.69194   0.77275
 Alpha virt. eigenvalues --    0.77573   0.84293   0.95161   2.23090   2.29109
 Alpha virt. eigenvalues --    2.33307   2.40738   2.67113   2.81787   2.87755
 Alpha virt. eigenvalues --    2.95159   3.14118   3.32061  23.35277  23.70582
     Molecular Orbital Coefficients:
                           1         2         3         4         5
                           O         O         O         O         O
     Eigenvalues --   -10.29015 -10.28791  -0.86390  -0.67252  -0.55993
   1 1   C  1S          0.11238   0.55207  -0.08848   0.06668  -0.00046
   2        2S          0.09269   0.45433  -0.13987   0.10678  -0.00075
   3        2PX         0.00016  -0.00001   0.02573   0.03594   0.14015
   4        2PY         0.00028  -0.00001   0.04636   0.05820  -0.07394
   5        2PZ        -0.00000  -0.00001  -0.00118   0.00166   0.00021
   6        3S          0.00206   0.01450   0.37523  -0.29133   0.00206
   7        3PX        -0.00060   0.00044   0.03433   0.05758   0.21959
   8        3PY        -0.00102   0.00079   0.06143   0.09456  -0.11697
   9        3PZ        -0.00001  -0.00003  -0.00197   0.00296   0.00030
  10        4S          0.00294  -0.01476   0.19208  -0.22447   0.00146
  11        4PX         0.00146  -0.00159   0.00479   0.02287   0.11291
  12        4PY         0.00250  -0.00273   0.00863   0.03919  -0.06112
  13        4PZ         0.00000   0.00007  -0.00067   0.00148   0.00014
  14 2   H  1S         -0.00004  -0.00006   0.05276  -0.08626   0.10403
  15        2S         -0.00030   0.00011   0.05410  -0.10422   0.13163
  16        3S          0.00086   0.00167  -0.00186  -0.01477   0.04245
  17 3   H  1S         -0.00005  -0.00007   0.05452  -0.09045  -0.10795
  18        2S         -0.00030   0.00009   0.05521  -0.10823  -0.13537
  19        3S          0.00089   0.00171  -0.00186  -0.01587  -0.04358
  20 4   C  1S          0.55206  -0.11257  -0.08672  -0.06847  -0.00028
  21        2S          0.45440  -0.09245  -0.13692  -0.10983  -0.00044
  22        2PX        -0.00002  -0.00017  -0.02769   0.03809   0.11529
  23        2PY        -0.00002  -0.00029  -0.04649   0.06850  -0.07357
  24        2PZ        -0.00000   0.00000  -0.00087  -0.00181   0.00021
  25        3S          0.01397  -0.00375   0.36672   0.30019   0.00120
  26        3PX        -0.00019   0.00073  -0.03450   0.06175   0.18039
  27        3PY        -0.00030   0.00127  -0.05782   0.11024  -0.11395
  28        3PZ        -0.00003  -0.00000  -0.00151  -0.00325   0.00031
  29        4S         -0.01206   0.00864   0.18846   0.23830  -0.00014
  30        4PX         0.00083  -0.00192  -0.00551   0.02731   0.09992
  31        4PY         0.00140  -0.00335  -0.00909   0.04710  -0.06208
  32        4PZ         0.00006  -0.00001  -0.00064  -0.00167   0.00016
  33 5   H  1S         -0.00007  -0.00004   0.04981   0.09488  -0.08807
  34        2S         -0.00003  -0.00031   0.05083   0.11280  -0.11065
  35        3S          0.00181   0.00011  -0.00099   0.01702  -0.03539
  36 6   H  1S         -0.00005  -0.00004   0.04837   0.09235   0.08295
  37        2S         -0.00003  -0.00033   0.04999   0.11048   0.10482
  38        3S          0.00176   0.00010  -0.00103   0.01629   0.03388
                           6         7         8         9        10
                           O         O         O         V         V
     Eigenvalues --    -0.50910  -0.43647  -0.35679   0.07976   0.14096
   1 1   C  1S         -0.00270   0.00027  -0.00091   0.00238  -0.03316
   2        2S         -0.00393   0.00046  -0.00148   0.00395  -0.05318
   3        2PX         0.09400  -0.10879  -0.00291   0.00122  -0.03061
   4        2PY         0.16922   0.06473  -0.00492   0.00207  -0.06488
   5        2PZ         0.00434  -0.00002   0.17943  -0.18903  -0.00219
   6        3S          0.01644  -0.00109   0.00432  -0.01196   0.11552
   7        3PX         0.13609  -0.17350  -0.00411   0.00185  -0.03582
   8        3PY         0.24711   0.10386  -0.00694   0.00307  -0.08047
   9        3PZ         0.00690   0.00001   0.28867  -0.27808  -0.00351
  10        4S         -0.05762  -0.00393   0.00609  -0.01378   1.22371
  11        4PX         0.06820  -0.10813  -0.00340   0.01074  -0.18428
  12        4PY         0.12534   0.06538  -0.00578   0.01817  -0.37834
  13        4PZ         0.00393   0.00004   0.26708  -0.69479  -0.01271
  14 2   H  1S         -0.08186  -0.11343   0.00010   0.00373  -0.01785
  15        2S         -0.11370  -0.17490   0.00170   0.00589  -0.04912
  16        3S         -0.04254  -0.08074   0.00102   0.01554  -0.83481
  17 3   H  1S         -0.07909   0.11088   0.00007   0.00375  -0.01336
  18        2S         -0.10912   0.16987   0.00168   0.00598  -0.03807
  19        3S         -0.04046   0.07816   0.00101   0.01523  -0.75888
  20 4   C  1S         -0.00936  -0.00054  -0.00066  -0.00224  -0.03646
  21        2S         -0.01472  -0.00089  -0.00108  -0.00370  -0.05856
  22        2PX        -0.09841   0.12689   0.00293   0.00151   0.04170
  23        2PY        -0.16116  -0.07474   0.00530   0.00269   0.06073
  24        2PZ         0.00471   0.00015   0.17907   0.18950  -0.00254
  25        3S          0.04688   0.00252   0.00320   0.01112   0.12944
  26        3PX        -0.14604   0.20297   0.00410   0.00232   0.05137
  27        3PY        -0.23726  -0.11862   0.00744   0.00416   0.07172
  28        3PZ         0.00744   0.00021   0.28655   0.27792  -0.00384
  29        4S         -0.02367   0.00377   0.00558   0.01209   1.24342
  30        4PX        -0.07672   0.13068   0.00312   0.01140   0.27274
  31        4PY        -0.12314  -0.07550   0.00578   0.02012   0.41847
  32        4PZ         0.00431   0.00011   0.26752   0.69618  -0.01521
  33 5   H  1S         -0.07343  -0.12610   0.00021  -0.00339  -0.01122
  34        2S         -0.09987  -0.19636   0.00185  -0.00564  -0.03657
  35        3S         -0.03727  -0.09240   0.00103  -0.01466  -0.82094
  36 6   H  1S         -0.07965   0.12597   0.00017  -0.00340  -0.01562
  37        2S         -0.10893   0.19734   0.00180  -0.00570  -0.04723
  38        3S         -0.04091   0.09298   0.00099  -0.01501  -0.89673
                          11        12        13        14        15
                           V         V         V         V         V
     Eigenvalues --     0.16492   0.17025   0.24075   0.37113   0.39381
   1 1   C  1S          0.00118  -0.04578   0.00009   0.00833   0.00105
   2        2S          0.00189  -0.07463   0.00014   0.01093   0.00163
   3        2PX         0.09660  -0.01952   0.09967  -0.03478  -0.02279
   4        2PY        -0.05311  -0.03680  -0.05710  -0.06343   0.00937
   5        2PZ         0.00010  -0.00575   0.00001  -0.00399  -0.00017
   6        3S         -0.00397   0.16913   0.00021   0.03668   0.00003
   7        3PX         0.13803  -0.01068   0.10445  -0.04105  -0.10480
   8        3PY        -0.07703  -0.02351  -0.06104  -0.07925   0.04972
   9        3PZ         0.00014  -0.00800  -0.00004  -0.00839  -0.00023
  10        4S         -0.05887   1.44445  -0.02477  -2.39946  -0.19150
  11        4PX         0.58989  -0.11650   1.17312  -1.51713  -0.54455
  12        4PY        -0.31530  -0.20500  -0.67119  -2.63592   0.13389
  13        4PZ         0.00079  -0.03764   0.00064  -0.03552  -0.00217
  14 2   H  1S         -0.02893  -0.02557   0.01442  -0.06216   0.07448
  15        2S         -0.08220  -0.01745  -0.02419  -0.69502   0.75952
  16        3S         -1.03153  -1.00839  -1.54233  -0.26495  -0.30574
  17 3   H  1S          0.02798  -0.02529  -0.01697  -0.05531  -0.07514
  18        2S          0.08084  -0.02122   0.01726  -0.64183  -0.75402
  19        3S          1.10602  -1.01899   1.57747  -0.34716   0.22576
  20 4   C  1S          0.00166   0.04205  -0.00014  -0.02002  -0.00013
  21        2S          0.00266   0.06843  -0.00024  -0.03312  -0.00008
  22        2PX         0.10127  -0.02425  -0.10048  -0.03978  -0.03262
  23        2PY        -0.06201  -0.03745   0.05762  -0.07086   0.01327
  24        2PZ         0.00018   0.00554  -0.00000   0.00273   0.00031
  25        3S         -0.00539  -0.15135   0.00036   0.04901  -0.00288
  26        3PX         0.14552  -0.01995  -0.11516  -0.09286  -0.11093
  27        3PY        -0.08767  -0.02741   0.06456  -0.16743   0.05624
  28        3PZ         0.00025   0.00762   0.00004   0.00304   0.00063
  29        4S         -0.07477  -1.33448   0.01857   3.18053   0.17249
  30        4PX         0.53030  -0.12196  -1.12066  -1.08023  -0.56727
  31        4PY        -0.33370  -0.19698   0.64991  -1.89968   0.10077
  32        4PZ         0.00120   0.03613  -0.00061   0.02988   0.00243
  33 5   H  1S          0.03131   0.02434   0.00523   0.00547  -0.08151
  34        2S          0.06611   0.02181  -0.03599   0.00775  -0.80112
  35        3S          1.08916   0.93076  -1.53069   0.44212   0.49106
  36 6   H  1S         -0.03148   0.02539  -0.00354   0.00087   0.08896
  37        2S         -0.06682   0.02042   0.03801  -0.03314   0.90460
  38        3S         -0.98799   0.94721   1.50625   0.45138  -0.47238
                          16        17        18        19        20
                           V         V         V         V         V
     Eigenvalues --     0.40117   0.46408   0.48915   0.49385   0.59104
   1 1   C  1S         -0.01950   0.01326   0.04578  -0.00113  -0.00046
   2        2S         -0.03394   0.03024   0.07629  -0.00164  -0.00083
   3        2PX         0.03007  -0.06146  -0.01110   0.00123   0.00176
   4        2PY         0.05509  -0.10651  -0.01261   0.00164   0.00259
   5        2PZ         0.00054  -0.00035  -0.00720  -0.15168  -0.19249
   6        3S          0.07248  -0.33768  -0.08101  -0.00672  -0.00081
   7        3PX         0.10746  -0.23965   0.04073  -0.00055   0.00582
   8        3PY         0.20355  -0.41286   0.08344  -0.00229   0.00865
   9        3PZ        -0.00269  -0.00370  -0.03149  -0.62764  -0.68498
  10        4S          2.95176   0.11799  -3.07812   0.13307   0.06082
  11        4PX         0.37253   0.22835  -0.82610   0.04045   0.01910
  12        4PY         0.68864   0.43390  -1.43946   0.07195   0.03301
  13        4PZ        -0.00071   0.00219   0.08974   0.68395   1.24071
  14 2   H  1S         -0.02293  -0.03103   0.07620  -0.00370  -0.00147
  15        2S         -0.49810  -0.29752   0.90761  -0.03849  -0.01146
  16        3S          0.34717   0.05486  -0.64755   0.03843   0.02035
  17 3   H  1S         -0.03101  -0.03389   0.07374  -0.00359  -0.00139
  18        2S         -0.57169  -0.33118   0.87941  -0.03753  -0.00993
  19        3S          0.36238   0.05554  -0.60718   0.03672   0.01968
  20 4   C  1S          0.00134  -0.00392  -0.05099   0.00358   0.00062
  21        2S         -0.00142   0.00094  -0.08903   0.00642   0.00116
  22        2PX         0.01081   0.05400  -0.02799   0.00053   0.00180
  23        2PY         0.02126   0.09314  -0.05205   0.00098   0.00348
  24        2PZ        -0.00337  -0.00172  -0.00723  -0.15267   0.19221
  25        3S          0.07700  -0.27942   0.24224  -0.02311  -0.00245
  26        3PX        -0.03973   0.23225  -0.06258   0.00117   0.00638
  27        3PY        -0.05653   0.40541  -0.11318   0.00176   0.01211
  28        3PZ        -0.00921  -0.00686  -0.02792  -0.63138   0.68220
  29        4S         -1.17726   0.79944   3.09261  -0.15280  -0.05259
  30        4PX         1.36104  -0.33333  -0.58620   0.02327   0.01819
  31        4PY         2.45951  -0.54121  -0.99248   0.03894   0.03153
  32        4PZ        -0.03084  -0.01500  -0.01729   0.69439  -1.23727
  33 5   H  1S         -0.04527  -0.06678  -0.06256   0.00319   0.00133
  34        2S         -0.83914  -0.69324  -0.80176   0.04567   0.00473
  35        3S         -0.25539   0.27691   0.52643  -0.01793  -0.01957
  36 6   H  1S         -0.03693  -0.06490  -0.06318   0.00326   0.00138
  37        2S         -0.74230  -0.66746  -0.80213   0.04559   0.00550
  38        3S         -0.27339   0.29426   0.55329  -0.01971  -0.01979
                          21        22        23        24        25
                           V         V         V         V         V
     Eigenvalues --     0.66582   0.69194   0.77275   0.77573   0.84293
   1 1   C  1S          0.00102  -0.00058   0.04675   0.07570   0.00097
   2        2S          0.00211  -0.00131   0.09857   0.16134   0.00223
   3        2PX        -0.13184   0.19820  -0.03256   0.11309  -0.00713
   4        2PY         0.07710  -0.11998  -0.05474   0.18172   0.01401
   5        2PZ        -0.00005   0.00015   0.00037   0.00414   0.00016
   6        3S         -0.01662   0.01813  -0.64628  -1.38388  -0.02441
   7        3PX        -0.61255   0.69828  -0.20124   0.43723  -0.21801
   8        3PY         0.35402  -0.42262  -0.34064   0.69102   0.16618
   9        3PZ        -0.00033   0.00062   0.00155   0.01441   0.00064
  10        4S          0.02757  -0.08496   0.57197   2.47857  -0.03374
  11        4PX         1.06449  -0.80319   0.21905  -0.76473   4.55043
  12        4PY        -0.61706   0.49090   0.24896  -0.97496  -2.61429
  13        4PZ         0.00027   0.00118   0.01034  -0.04642   0.00291
  14 2   H  1S          0.02392  -0.05887   0.00818   0.03322  -0.02756
  15        2S          0.14000  -0.63057   0.06577   0.10092  -1.59677
  16        3S         -1.03920   1.11640  -0.04205  -1.09099  -1.24188
  17 3   H  1S         -0.02309   0.05827   0.00803   0.03409   0.03133
  18        2S         -0.15536   0.67020   0.10194   0.06457   1.64236
  19        3S          1.02836  -1.07538  -0.00858  -1.26070   1.24150
  20 4   C  1S          0.00124  -0.00047   0.08232   0.03621   0.00069
  21        2S          0.00252  -0.00087   0.17528   0.07632   0.00137
  22        2PX        -0.15215  -0.18482  -0.09889   0.04672   0.00931
  23        2PY         0.08695   0.10169  -0.18031   0.08682   0.00339
  24        2PZ        -0.00003  -0.00015   0.00446  -0.00072  -0.00018
  25        3S         -0.01833  -0.00136  -1.47232  -0.46627  -0.00559
  26        3PX        -0.68674  -0.62642  -0.36440   0.25751   0.23118
  27        3PY         0.39589   0.34131  -0.67125   0.47467  -0.09079
  28        3PZ        -0.00025  -0.00053   0.01582  -0.00291  -0.00059
  29        4S          0.01560   0.05686   2.68061   0.28580   0.01804
  30        4PX         1.30514   0.77515   0.51569  -0.20739  -4.13050
  31        4PY        -0.74619  -0.42034   1.06831  -0.63748   2.34601
  32        4PZ         0.00041  -0.00098  -0.04597   0.01965  -0.00216
  33 5   H  1S         -0.02504  -0.05470   0.03432   0.00500  -0.02315
  34        2S         -0.14069  -0.54886   0.07059   0.08405  -1.40131
  35        3S          1.12081   0.98311  -1.19031   0.24191  -1.08174
  36 6   H  1S          0.02585   0.05455   0.03372   0.00577   0.02267
  37        2S          0.13255   0.51163   0.07878   0.02014   1.37998
  38        3S         -1.12571  -1.00613  -1.09367   0.15909   1.09238
                          26        27        28        29        30
                           V         V         V         V         V
     Eigenvalues --     0.95161   2.23090   2.29109   2.33307   2.40738
   1 1   C  1S          0.09609  -0.01001  -0.01479  -0.00050  -0.00055
   2        2S          0.19972   0.00178  -0.01467  -0.00103  -0.00065
   3        2PX        -0.09100  -0.07090  -0.13035  -0.35195  -0.40669
   4        2PY        -0.15786  -0.13498  -0.23140   0.19935   0.23071
   5        2PZ         0.00027  -0.01144  -0.01588  -0.00006  -0.00062
   6        3S         -1.54825  -0.18765  -0.04008   0.00141  -0.00512
   7        3PX        -0.23349   0.06215   0.20381   0.42071   0.56712
   8        3PY        -0.39605   0.13513   0.37712  -0.24063  -0.32406
   9        3PZ        -0.00190   0.01140   0.01968  -0.00004   0.00070
  10        4S          5.71366  -0.09936  -0.88329  -0.00598  -0.02511
  11        4PX         1.21310   0.05797  -0.18742   0.07446   0.99807
  12        4PY         1.98666   0.07320  -0.35973  -0.03425  -0.55230
  13        4PZ        -0.01748   0.00240   0.00734   0.00033   0.00139
  14 2   H  1S          0.01502  -0.69686  -0.81161   0.70548   0.64615
  15        2S         -0.28977   0.98722   1.21295  -1.09923  -1.45808
  16        3S         -0.10148  -0.29589  -0.48528   0.46176   0.35683
  17 3   H  1S          0.01534  -0.68840  -0.80206  -0.70277  -0.67092
  18        2S         -0.25207   0.97666   1.20325   1.10003   1.51000
  19        3S         -0.07999  -0.27122  -0.46023  -0.45249  -0.34756
  20 4   C  1S         -0.09370  -0.01059   0.01216  -0.00048   0.00037
  21        2S         -0.19430  -0.00043   0.01229  -0.00073   0.00062
  22        2PX        -0.09245   0.14126  -0.12007  -0.29872   0.41792
  23        2PY        -0.15942   0.24497  -0.20214   0.17282  -0.24011
  24        2PZ         0.00037  -0.01273   0.01507  -0.00018   0.00028
  25        3S          1.50114  -0.16492   0.01619   0.00002   0.00047
  26        3PX        -0.22574  -0.18278   0.20863   0.37398  -0.58574
  27        3PY        -0.39638  -0.31064   0.34227  -0.21282   0.33620
  28        3PZ         0.00335   0.01374  -0.01927   0.00014  -0.00037
  29        4S         -5.68541  -0.18339   0.89050  -0.01284   0.00992
  30        4PX         1.09178  -0.01113  -0.19591  -0.12741  -0.84817
  31        4PY         1.98159  -0.03183  -0.31006   0.07009   0.49966
  32        4PZ         0.00951   0.00427  -0.00531   0.00009  -0.00114
  33 5   H  1S         -0.01805  -0.79841   0.66226  -0.70122   0.69233
  34        2S          0.28942   1.16407  -1.01474   1.01072  -1.46434
  35        3S          0.05837  -0.35979   0.39111  -0.51156   0.43174
  36 6   H  1S         -0.01794  -0.79222   0.68188   0.69256  -0.68788
  37        2S          0.31829   1.15190  -1.03841  -0.99458   1.44778
  38        3S          0.07068  -0.36339   0.41862   0.51150  -0.44067
                          31        32        33        34        35
                           V         V         V         V         V
     Eigenvalues --     2.67113   2.81787   2.87755   2.95159   3.14118
   1 1   C  1S          0.00044   0.00222  -0.01337   0.00012  -0.00999
   2        2S          0.00035   0.00632  -0.04366   0.00001  -0.03049
   3        2PX         0.00401   0.06411  -0.48162  -0.71785   0.44055
   4        2PY         0.00631   0.11272  -0.86744   0.40440   0.76650
   5        2PZ        -0.92449  -0.93234  -0.12074  -0.00087   0.00479
   6        3S         -0.00143  -0.05191   0.38109   0.00216   0.25533
   7        3PX        -0.00275  -0.11047   0.84560   0.86527  -0.41667
   8        3PY        -0.00439  -0.19253   1.49596  -0.47481  -0.72124
   9        3PZ         0.93966   1.13969   0.15127   0.00123  -0.00630
  10        4S          0.01135   0.12229  -0.87256  -0.00795  -0.50241
  11        4PX        -0.00200   0.08812  -0.71484  -0.66619   0.20393
  12        4PY        -0.00261   0.15444  -1.27030   0.35585   0.34545
  13        4PZ        -0.33817  -0.61736  -0.09547  -0.00103   0.00350
  14 2   H  1S          0.01047  -0.01614   0.25668  -0.37016  -0.20755
  15        2S         -0.01183   0.00938  -0.21105   0.38439   0.15649
  16        3S         -0.00263   0.03595  -0.30038   0.27706   0.04804
  17 3   H  1S          0.01059  -0.01542   0.24561   0.36965  -0.20988
  18        2S         -0.01212   0.00761  -0.18954  -0.37915   0.15873
  19        3S         -0.00322   0.03673  -0.30534  -0.29534   0.05794
  20 4   C  1S          0.00043  -0.00214   0.01358   0.00058  -0.00711
  21        2S          0.00042  -0.00671   0.04823   0.00129  -0.02203
  22        2PX        -0.00671   0.05567  -0.40003  -0.81553  -0.51117
  23        2PY        -0.01202   0.09880  -0.70811   0.45318  -0.90634
  24        2PZ        -0.92497   0.93119   0.12427   0.00038   0.01238
  25        3S         -0.00240   0.05782  -0.43515  -0.00936   0.18906
  26        3PX         0.00701  -0.10199   0.76112   0.97234   0.55528
  27        3PY         0.01234  -0.18007   1.34174  -0.53469   0.99361
  28        3PZ         0.94053  -1.13837  -0.15677  -0.00043  -0.01561
  29        4S          0.01332  -0.12477   0.90463   0.02735  -0.35841
  30        4PX        -0.00089   0.08763  -0.70878  -0.70222  -0.34621
  31        4PY        -0.00193   0.15325  -1.23555   0.38153  -0.62269
  32        4PZ        -0.33862   0.61634   0.10012   0.00025   0.01237
  33 5   H  1S          0.00976   0.02447  -0.29518   0.42326  -0.27193
  34        2S         -0.01211  -0.02016   0.27033  -0.43249   0.21452
  35        3S         -0.00111  -0.03318   0.28179  -0.24459   0.13568
  36 6   H  1S          0.00988   0.02484  -0.29472  -0.43382  -0.25964
  37        2S         -0.01257  -0.02133   0.27717   0.44315   0.20533
  38        3S         -0.00072  -0.03133   0.26564   0.24323   0.12684
                          36        37        38
                           V         V         V
     Eigenvalues --     3.32061  23.35277  23.70582
   1 1   C  1S         -0.00047  -1.41192  -1.45432
   2        2S         -0.00065   1.50583   1.57267
   3        2PX         0.79509  -0.00661   0.01202
   4        2PY        -0.44415  -0.01065   0.02126
   5        2PZ         0.00083  -0.00047  -0.00023
   6        3S         -0.00036  -0.29591  -0.39998
   7        3PX        -1.13727   0.02416  -0.05539
   8        3PY         0.62972   0.03964  -0.09678
   9        3PZ        -0.00129   0.00133   0.00071
  10        4S         -0.01106   0.27511   0.76848
  11        4PX         1.99736  -0.02592   0.13320
  12        4PY        -1.10630  -0.04312   0.22971
  13        4PZ         0.00217  -0.00225  -0.00281
  14 2   H  1S          0.57054   0.01303   0.00739
  15        2S         -0.88866   0.00763  -0.01485
  16        3S         -0.46911  -0.08415  -0.03970
  17 3   H  1S         -0.58336   0.01515   0.00892
  18        2S          0.90701   0.00702  -0.01509
  19        3S          0.49852  -0.08685  -0.04012
  20 4   C  1S          0.00018  -1.44953   1.41665
  21        2S         -0.00005   1.54601  -1.53201
  22        2PX        -0.69852   0.00605   0.01272
  23        2PY         0.40204   0.01103   0.02154
  24        2PZ        -0.00065  -0.00048   0.00010
  25        3S          0.00424  -0.30339   0.38960
  26        3PX         0.99522  -0.02226  -0.05656
  27        3PY        -0.58219  -0.04001  -0.09699
  28        3PZ         0.00102   0.00137  -0.00022
  29        4S         -0.01265   0.27916  -0.75880
  30        4PX        -1.75674   0.02350   0.13061
  31        4PY         1.03458   0.04336   0.22604
  32        4PZ        -0.00173  -0.00221   0.00174
  33 5   H  1S          0.47655   0.01359  -0.00468
  34        2S         -0.74319   0.00807   0.01373
  35        3S         -0.42977  -0.08314   0.03734
  36 6   H  1S         -0.46919   0.01189  -0.00335
  37        2S          0.73450   0.00931   0.01322
  38        3S          0.41541  -0.08097   0.03662
     Density Matrix:
                           1         2         3         4         5
   1 1   C  1S          0.65939
   2        2S          0.56150   0.49198
   3        2PX        -0.00043  -0.00054   0.08455
   4        2PY        -0.00119  -0.00164   0.00360   0.08771
   5        2PZ         0.00007   0.00012  -0.00011  -0.00024   0.06444
   6        3S         -0.08888  -0.15376   0.00225   0.00596  -0.00016
   7        3PX         0.00093   0.00144   0.13081   0.00105  -0.00008
   8        3PY         0.00123   0.00189   0.00107   0.13115  -0.00023
   9        3PZ         0.00015   0.00025  -0.00019  -0.00039   0.10367
  10        4S         -0.07926  -0.11410  -0.01585  -0.02861   0.00048
  11        4PX         0.00026   0.00158   0.06991  -0.00447  -0.00051
  12        4PY         0.00067   0.00312  -0.00450   0.06535  -0.00090
  13        4PZ        -0.00011  -0.00025  -0.00071  -0.00121   0.09589
  14 2   H  1S         -0.02063  -0.03286   0.03497  -0.06292  -0.00104
  15        2S         -0.02302  -0.03681   0.04886  -0.08772  -0.00079
  16        3S          0.00054  -0.00077   0.02031  -0.03303  -0.00003
  17 3   H  1S         -0.02122  -0.03376  -0.07295  -0.00193  -0.00114
  18        2S         -0.02337  -0.03732  -0.10037  -0.00242  -0.00090
  19        3S          0.00060  -0.00070  -0.03807   0.00084  -0.00006
  20 4   C  1S          0.00606   0.00976  -0.01092  -0.01889  -0.00034
  21        2S          0.00972   0.01520  -0.01748  -0.03024  -0.00056
  22        2PX         0.01028   0.01643  -0.01250  -0.03209   0.00043
  23        2PY         0.01792   0.02866  -0.03216  -0.04973   0.00081
  24        2PZ        -0.00044  -0.00071  -0.00031  -0.00047   0.06430
  25        3S         -0.02612  -0.03967   0.04904   0.08494   0.00169
  26        3PX         0.01583   0.02452  -0.01841  -0.04588   0.00056
  27        3PY         0.02757   0.04271  -0.04583  -0.07141   0.00107
  28        3PZ        -0.00074  -0.00119  -0.00054  -0.00084   0.10289
  29        4S          0.00538   0.00396   0.02148   0.03765   0.00214
  30        4PX         0.00308   0.00635  -0.01319  -0.02119   0.00060
  31        4PY         0.00517   0.01079  -0.02124  -0.03769   0.00116
  32        4PZ        -0.00062  -0.00100  -0.00088  -0.00144   0.09604
  33 5   H  1S          0.00419   0.00687  -0.00167  -0.01249  -0.00040
  34        2S          0.00623   0.01034   0.00365  -0.02503   0.00001
  35        3S          0.00315   0.00460   0.00434  -0.01746   0.00009
  36 6   H  1S          0.00412   0.00676  -0.01001  -0.00768  -0.00041
  37        2S          0.00612   0.01018  -0.02353  -0.00934  -0.00001
  38        3S          0.00310   0.00454  -0.01731  -0.00503   0.00007
                           6         7         8         9        10
   6        3S          0.45236
   7        3PX        -0.00205   0.20270
   8        3PY        -0.00162  -0.00499   0.19660
   9        3PZ        -0.00049  -0.00016  -0.00035   0.16678
  10        4S          0.27269  -0.02641  -0.04860   0.00063   0.18177
  11        4PX        -0.00686   0.10866  -0.01021  -0.00084  -0.01510
  12        4PY        -0.01275  -0.01027   0.09837  -0.00145  -0.02940
  13        4PZ         0.00107  -0.00095  -0.00159   0.15426   0.00187
  14 2   H  1S          0.08784   0.05646  -0.09819  -0.00173   0.06963
  15        2S          0.09853   0.07925  -0.13640  -0.00134   0.08245
  16        3S          0.00622   0.03324  -0.05076  -0.00005   0.01154
  17 3   H  1S          0.09033  -0.11409  -0.00121  -0.00187   0.06948
  18        2S          0.09999  -0.15678  -0.00068  -0.00147   0.08066
  19        3S          0.00623  -0.05923   0.00319  -0.00008   0.01030
  20 4   C  1S         -0.02649  -0.01707  -0.02957  -0.00058   0.00507
  21        2S         -0.04006  -0.02655  -0.04600  -0.00094   0.00380
  22        2PX        -0.04599  -0.01772  -0.04549   0.00074  -0.01701
  23        2PY        -0.08020  -0.04559  -0.07079   0.00138  -0.02959
  24        2PZ         0.00210  -0.00042  -0.00062   0.10344   0.00212
  25        3S          0.10181   0.07211   0.12515   0.00283   0.00092
  26        3PX        -0.06632  -0.02624  -0.06483   0.00097  -0.02519
  27        3PY        -0.11554  -0.06480  -0.10160   0.00184  -0.04371
  28        3PZ         0.00348  -0.00075  -0.00113   0.16553   0.00351
  29        4S          0.00204   0.03255   0.05730   0.00356  -0.03215
  30        4PX        -0.02247  -0.01960  -0.02971   0.00099  -0.00617
  31        4PY        -0.03845  -0.02983  -0.05432   0.00192  -0.00986
  32        4PZ         0.00295  -0.00123  -0.00199   0.15450   0.00327
  33 5   H  1S         -0.02040  -0.00057  -0.01782  -0.00058  -0.01426
  34        2S         -0.03089   0.00883  -0.03671   0.00009  -0.01835
  35        3S         -0.01181   0.00826  -0.02626   0.00016  -0.00308
  36 6   H  1S         -0.02006  -0.01501  -0.00920  -0.00059  -0.01444
  37        2S         -0.03043  -0.03595  -0.01036   0.00006  -0.01905
  38        3S         -0.01166  -0.02672  -0.00590   0.00013  -0.00361
                          11        12        13        14        15
  11        4PX         0.05931
  12        4PY        -0.00891   0.05076
  13        4PZ        -0.00119  -0.00201   0.14270
  14 2   H  1S          0.03341  -0.05392  -0.00090   0.08123
  15        2S          0.04777  -0.07472  -0.00034   0.10937   0.14927
  16        3S          0.02054  -0.02762   0.00018   0.03646   0.05197
  17 3   H  1S         -0.06276   0.00172  -0.00095  -0.01331  -0.02446
  18        2S         -0.08663   0.00385  -0.00038  -0.02434  -0.04170
  19        3S         -0.03301   0.00411   0.00017  -0.01763  -0.02650
  20 4   C  1S         -0.00321  -0.00587  -0.00053   0.00423   0.00678
  21        2S         -0.00662  -0.01194  -0.00084   0.00699   0.01133
  22        2PX        -0.01337  -0.01970   0.00099   0.00182  -0.00258
  23        2PY        -0.01978  -0.03667   0.00180   0.01131   0.02413
  24        2PZ        -0.00065  -0.00105   0.09569  -0.00051  -0.00018
  25        3S          0.02340   0.04185   0.00247  -0.02109  -0.03412
  26        3PX        -0.02062  -0.02793   0.00134   0.00110  -0.00689
  27        3PY        -0.02801  -0.05351   0.00247   0.01693   0.03624
  28        3PZ        -0.00107  -0.00174   0.15311  -0.00074  -0.00019
  29        4S          0.00853   0.01634   0.00325  -0.01823  -0.02523
  30        4PX        -0.01498  -0.01234   0.00119  -0.00159  -0.00824
  31        4PY        -0.01244  -0.02966   0.00225   0.01529   0.02729
  32        4PZ        -0.00130  -0.00216   0.14293  -0.00043   0.00021
  33 5   H  1S          0.00218  -0.01584  -0.00029   0.01119   0.02323
  34        2S          0.00949  -0.02749   0.00042   0.02378   0.04426
  35        3S          0.00767  -0.01579   0.00029   0.01666   0.02783
  36 6   H  1S         -0.01469  -0.00556  -0.00029  -0.00911  -0.01813
  37        2S         -0.02834  -0.00481   0.00041  -0.01891  -0.03428
  38        3S         -0.01730  -0.00098   0.00028  -0.01027  -0.01781
                          16        17        18        19        20
  16        3S          0.02071
  17 3   H  1S         -0.01787   0.08272
  18        2S         -0.02665   0.10976   0.14771
  19        3S         -0.01239   0.03581   0.05041   0.01981
  20 4   C  1S          0.00378   0.00431   0.00683   0.00379   0.65948
  21        2S          0.00559   0.00713   0.01139   0.00558   0.56159
  22        2PX        -0.00334   0.00891   0.02208   0.01665   0.00125
  23        2PY         0.01770   0.00734   0.00975   0.00578   0.00186
  24        2PZ         0.00001  -0.00050  -0.00013   0.00005   0.00007
  25        3S         -0.01451  -0.02144  -0.03419  -0.01438  -0.08933
  26        3PX        -0.00672   0.01424   0.03483   0.02600  -0.00044
  27        3PY         0.02665   0.00958   0.01211   0.00732  -0.00106
  28        3PZ         0.00005  -0.00073  -0.00013   0.00010   0.00016
  29        4S         -0.00633  -0.01795  -0.02427  -0.00573  -0.08015
  30        4PX        -0.00687   0.01400   0.02758   0.01708  -0.00020
  31        4PY         0.01605   0.00663   0.00685   0.00211  -0.00016
  32        4PZ         0.00023  -0.00042   0.00025   0.00025  -0.00003
  33 5   H  1S          0.01615  -0.00907  -0.01801  -0.00929  -0.02014
  34        2S          0.02729  -0.01873  -0.03376  -0.01674  -0.02208
  35        3S          0.01459  -0.01014  -0.01747  -0.00887   0.00063
  36 6   H  1S         -0.00943   0.01120   0.02307   0.01580  -0.01977
  37        2S         -0.01714   0.02383   0.04405   0.02684  -0.02199
  38        3S         -0.00913   0.01672   0.02771   0.01438   0.00051
                          21        22        23        24        25
  21        2S          0.49210
  22        2PX         0.00180   0.08260
  23        2PY         0.00265   0.00362   0.08770
  24        2PZ         0.00011   0.00012   0.00016   0.06419
  25        3S         -0.15436  -0.00573  -0.00860  -0.00013   0.45404
  26        3PX        -0.00066   0.12848   0.00190   0.00007  -0.00045
  27        3PY        -0.00161   0.00197   0.13152   0.00005   0.00069
  28        3PZ         0.00026   0.00018   0.00026   0.10271  -0.00052
  29        4S         -0.11583   0.01333   0.02226   0.00059   0.27873
  30        4PX        -0.00145   0.07371  -0.00522   0.00039   0.00612
  31        4PY        -0.00216  -0.00511   0.06747   0.00071   0.00963
  32        4PZ        -0.00011   0.00069   0.00124   0.09586   0.00065
  33 5   H  1S         -0.03207  -0.03339   0.06384  -0.00112   0.08577
  34        2S         -0.03528  -0.04990   0.08857  -0.00088   0.09440
  35        3S         -0.00055  -0.02291   0.03347  -0.00008   0.00550
  36 6   H  1S         -0.03152   0.07113   0.00279  -0.00103   0.08428
  37        2S         -0.03517   0.10135   0.00070  -0.00076   0.09404
  38        3S         -0.00071   0.04076  -0.00336  -0.00004   0.00579
                          26        27        28        29        30
  26        3PX         0.20017
  27        3PY        -0.00230   0.19780
  28        3PZ         0.00008   0.00007   0.16436
  29        4S          0.02488   0.04122   0.00073   0.18626
  30        4PX         0.11528  -0.01067   0.00061   0.01551   0.06748
  31        4PY        -0.01059   0.10200   0.00113   0.02427  -0.01052
  32        4PZ         0.00088   0.00158   0.15339   0.00174   0.00099
  33 5   H  1S         -0.05323   0.09999  -0.00185   0.06655  -0.03466
  34        2S         -0.08002   0.13821  -0.00146   0.07621  -0.05249
  35        3S         -0.03721   0.05155  -0.00013   0.00878  -0.02455
  36 6   H  1S          0.11239   0.00377  -0.00173   0.06694   0.06623
  37        2S          0.15995  -0.00041  -0.00131   0.07813   0.09473
  38        3S          0.06401  -0.00664  -0.00008   0.00998   0.03826
                          31        32        33        34        35
  31        4PY         0.05413
  32        4PZ         0.00185   0.14318
  33 5   H  1S          0.05610  -0.00096   0.08107
  34        2S          0.07771  -0.00039   0.11015   0.15217
  35        3S          0.02916   0.00014   0.03814   0.05531   0.02295
  36 6   H  1S         -0.00188  -0.00091  -0.01234  -0.02617  -0.02017
  37        2S         -0.00647  -0.00033  -0.02629  -0.04893  -0.03210
  38        3S         -0.00660   0.00016  -0.02042  -0.03227  -0.01597
                          36        37        38
  36 6   H  1S          0.07992
  37        2S          0.10970   0.15301
  38        3S          0.03847   0.05621   0.02347
    Full Mulliken population analysis:
                           1         2         3         4         5
   1 1   C  1S          0.65939
   2        2S          0.49324   0.49198
   3        2PX         0.00000   0.00000   0.08455
   4        2PY         0.00000   0.00000   0.00000   0.08771
   5        2PZ         0.00000   0.00000   0.00000   0.00000   0.06444
   6        3S         -0.02926  -0.06440   0.00000   0.00000   0.00000
   7        3PX         0.00000   0.00000   0.08230   0.00000   0.00000
   8        3PY         0.00000   0.00000   0.00000   0.08251   0.00000
   9        3PZ         0.00000   0.00000   0.00000   0.00000   0.06522
  10        4S         -0.01219  -0.02135   0.00000   0.00000   0.00000
  11        4PX         0.00000   0.00000   0.01540   0.00000   0.00000
  12        4PY         0.00000   0.00000   0.00000   0.01439   0.00000
  13        4PZ         0.00000   0.00000   0.00000   0.00000   0.02112
  14 2   H  1S         -0.00023  -0.00033   0.00186   0.00557   0.00000
  15        2S         -0.00168  -0.00321   0.00437   0.01310   0.00000
  16        3S          0.00004  -0.00007   0.00070   0.00189   0.00000
  17 3   H  1S         -0.00026  -0.00038   0.00802  -0.00000   0.00000
  18        2S         -0.00176  -0.00337   0.01777  -0.00000   0.00000
  19        3S          0.00005  -0.00007   0.00253   0.00000   0.00000
  20 4   C  1S          0.00000   0.00000  -0.00002  -0.00006   0.00000
  21        2S          0.00000  -0.00000  -0.00002  -0.00005   0.00000
  22        2PX        -0.00002  -0.00002   0.00011   0.00085   0.00000
  23        2PY        -0.00006  -0.00005   0.00085   0.00196   0.00000
  24        2PZ        -0.00000  -0.00000  -0.00000  -0.00000   0.00041
  25        3S         -0.00059  -0.00099   0.00256   0.00766  -0.00000
  26        3PX        -0.00053  -0.00098   0.00019   0.00554   0.00000
  27        3PY        -0.00161  -0.00296   0.00554   0.01071   0.00000
  28        3PZ        -0.00000  -0.00000  -0.00000  -0.00000   0.00610
  29        4S          0.00034   0.00030   0.00097   0.00296  -0.00000
  30        4PX        -0.00018  -0.00045  -0.00071   0.00147   0.00000
  31        4PY        -0.00052  -0.00133   0.00147   0.00098   0.00000
  32        4PZ        -0.00000  -0.00000  -0.00000  -0.00000   0.00903
  33 5   H  1S          0.00000   0.00000  -0.00000  -0.00000   0.00000
  34        2S          0.00001   0.00002   0.00000  -0.00031  -0.00000
  35        3S          0.00007   0.00013   0.00001  -0.00070  -0.00000
  36 6   H  1S          0.00000   0.00000  -0.00000  -0.00000   0.00000
  37        2S          0.00001   0.00002  -0.00023  -0.00006   0.00000
  38        3S          0.00007   0.00012  -0.00056  -0.00011  -0.00000
                           6         7         8         9        10
   6        3S          0.45236
   7        3PX         0.00000   0.20270
   8        3PY         0.00000   0.00000   0.19660
   9        3PZ         0.00000   0.00000   0.00000   0.16678
  10        4S          0.21125   0.00000   0.00000   0.00000   0.18177
  11        4PX         0.00000   0.07100   0.00000   0.00000   0.00000
  12        4PY         0.00000   0.00000   0.06428   0.00000   0.00000
  13        4PZ         0.00000   0.00000   0.00000   0.10080   0.00000
  14 2   H  1S          0.01612   0.01105   0.03207   0.00002   0.01841
  15        2S          0.04146   0.01989   0.05712   0.00002   0.04752
  16        3S          0.00286   0.00398   0.01013   0.00000   0.00871
  17 3   H  1S          0.01725   0.04460  -0.00000   0.00002   0.01865
  18        2S          0.04301   0.07722  -0.00000   0.00002   0.04702
  19        3S          0.00290   0.01373   0.00000   0.00000   0.00782
  20 4   C  1S         -0.00059  -0.00058  -0.00173   0.00000   0.00032
  21        2S         -0.00100  -0.00106  -0.00318   0.00000   0.00029
  22        2PX         0.00240   0.00019   0.00550   0.00000   0.00077
  23        2PY         0.00724   0.00551   0.01062   0.00000   0.00233
  24        2PZ         0.00000  -0.00000  -0.00000   0.00613   0.00000
  25        3S          0.02168   0.01351   0.04059  -0.00000   0.00035
  26        3PX         0.01242  -0.00127   0.01850   0.00000   0.00388
  27        3PY         0.03747   0.01848   0.02855   0.00000   0.01167
  28        3PZ         0.00000  -0.00000  -0.00000   0.03525   0.00000
  29        4S          0.00077   0.00502   0.01529  -0.00000  -0.02018
  30        4PX         0.00631  -0.00402   0.00588   0.00000   0.00187
  31        4PY         0.01870   0.00591   0.00128   0.00000   0.00517
  32        4PZ         0.00000  -0.00000  -0.00000   0.04934   0.00000
  33 5   H  1S         -0.00005  -0.00000  -0.00019   0.00000  -0.00076
  34        2S         -0.00118   0.00007  -0.00319  -0.00000  -0.00306
  35        3S         -0.00191   0.00011  -0.00421  -0.00000  -0.00111
  36 6   H  1S         -0.00005  -0.00012  -0.00005   0.00000  -0.00075
  37        2S         -0.00112  -0.00250  -0.00050  -0.00000  -0.00312
  38        3S         -0.00186  -0.00350  -0.00054  -0.00000  -0.00128
                          11        12        13        14        15
  11        4PX         0.05931
  12        4PY         0.00000   0.05076
  13        4PZ         0.00000   0.00000   0.14270
  14 2   H  1S          0.00643   0.01731   0.00001   0.08123
  15        2S          0.01548   0.04038   0.00001   0.07725   0.14927
  16        3S          0.00521   0.01170  -0.00000   0.01363   0.04100
  17 3   H  1S          0.02352   0.00000   0.00001  -0.00001  -0.00062
  18        2S          0.05447   0.00001   0.00001  -0.00062  -0.00512
  19        3S          0.01620   0.00001  -0.00000  -0.00194  -0.00765
  20 4   C  1S         -0.00019  -0.00059   0.00000   0.00000   0.00002
  21        2S         -0.00047  -0.00147   0.00000   0.00000   0.00003
  22        2PX        -0.00072   0.00137   0.00000  -0.00000   0.00000
  23        2PY         0.00137   0.00095   0.00000  -0.00000  -0.00037
  24        2PZ        -0.00000  -0.00000   0.00900   0.00000   0.00000
  25        3S          0.00657   0.02035  -0.00000  -0.00007  -0.00153
  26        3PX        -0.00423   0.00553   0.00000  -0.00000   0.00003
  27        3PY         0.00555   0.00126   0.00000  -0.00023  -0.00362
  28        3PZ        -0.00000  -0.00000   0.04890   0.00000   0.00000
  29        4S          0.00258   0.00857  -0.00000  -0.00108  -0.00458
  30        4PX        -0.00721   0.00312   0.00000   0.00001   0.00016
  31        4PY         0.00315  -0.00561   0.00000  -0.00245  -0.01036
  32        4PZ        -0.00000  -0.00000   0.08971   0.00000  -0.00000
  33 5   H  1S          0.00003  -0.00233   0.00000   0.00000   0.00000
  34        2S          0.00029  -0.00981  -0.00000   0.00000   0.00016
  35        3S          0.00031  -0.00727  -0.00000   0.00023   0.00147
  36 6   H  1S         -0.00175  -0.00046   0.00000  -0.00000  -0.00004
  37        2S         -0.00824  -0.00097  -0.00000  -0.00004  -0.00092
  38        3S         -0.00653  -0.00026  -0.00000  -0.00047  -0.00247
                          16        17        18        19        20
  16        3S          0.02071
  17 3   H  1S         -0.00197   0.08272
  18        2S         -0.00769   0.07753   0.14771
  19        3S         -0.00640   0.01338   0.03978   0.01981
  20 4   C  1S          0.00010   0.00000   0.00002   0.00010   0.65948
  21        2S          0.00017   0.00000   0.00003   0.00017   0.49333
  22        2PX         0.00001  -0.00000  -0.00029  -0.00059   0.00000
  23        2PY        -0.00075  -0.00000  -0.00008  -0.00014   0.00000
  24        2PZ        -0.00000   0.00000   0.00000  -0.00000   0.00000
  25        3S         -0.00252  -0.00008  -0.00156  -0.00252  -0.02941
  26        3PX         0.00006  -0.00017  -0.00295  -0.00367   0.00000
  27        3PY        -0.00448  -0.00007  -0.00067  -0.00068   0.00000
  28        3PZ        -0.00000   0.00000   0.00000  -0.00000   0.00000
  29        4S         -0.00239  -0.00107  -0.00444  -0.00217  -0.01232
  30        4PX         0.00016  -0.00189  -0.00880  -0.00677   0.00000
  31        4PY        -0.00759  -0.00059  -0.00144  -0.00055   0.00000
  32        4PZ        -0.00000   0.00000  -0.00000  -0.00000   0.00000
  33 5   H  1S          0.00023  -0.00000  -0.00004  -0.00042  -0.00022
  34        2S          0.00144  -0.00004  -0.00091  -0.00234  -0.00159
  35        3S          0.00247  -0.00046  -0.00244  -0.00284   0.00005
  36 6   H  1S         -0.00043   0.00000   0.00000   0.00022  -0.00020
  37        2S         -0.00238   0.00000   0.00015   0.00141  -0.00154
  38        3S         -0.00291   0.00023   0.00146   0.00242   0.00004
                          21        22        23        24        25
  21        2S          0.49210
  22        2PX         0.00000   0.08260
  23        2PY         0.00000   0.00000   0.08770
  24        2PZ         0.00000   0.00000   0.00000   0.06419
  25        3S         -0.06464   0.00000   0.00000   0.00000   0.45404
  26        3PX         0.00000   0.08083   0.00000   0.00000   0.00000
  27        3PY         0.00000   0.00000   0.08274   0.00000   0.00000
  28        3PZ         0.00000   0.00000   0.00000   0.06462   0.00000
  29        4S         -0.02168   0.00000   0.00000   0.00000   0.21593
  30        4PX         0.00000   0.01623   0.00000   0.00000   0.00000
  31        4PY         0.00000   0.00000   0.01486   0.00000   0.00000
  32        4PZ         0.00000   0.00000   0.00000   0.02111   0.00000
  33 5   H  1S         -0.00031   0.00147   0.00578   0.00000   0.01551
  34        2S         -0.00304   0.00379   0.01376   0.00000   0.03938
  35        3S         -0.00005   0.00067   0.00201   0.00000   0.00253
  36 6   H  1S         -0.00028   0.00679   0.00002   0.00000   0.01476
  37        2S         -0.00295   0.01724   0.00001   0.00000   0.03855
  38        3S         -0.00007   0.00272  -0.00002   0.00000   0.00264
                          26        27        28        29        30
  26        3PX         0.20017
  27        3PY         0.00000   0.19780
  28        3PZ         0.00000   0.00000   0.16436
  29        4S          0.00000   0.00000   0.00000   0.18626
  30        4PX         0.07533   0.00000   0.00000   0.00000   0.06748
  31        4PY         0.00000   0.06666   0.00000   0.00000   0.00000
  32        4PZ         0.00000   0.00000   0.10024   0.00000   0.00000
  33 5   H  1S          0.00880   0.03387   0.00002   0.01750   0.00569
  34        2S          0.01708   0.06043   0.00002   0.04373   0.01452
  35        3S          0.00380   0.01079   0.00000   0.00661   0.00533
  36 6   H  1S          0.04137   0.00010   0.00002   0.01739   0.02467
  37        2S          0.07707  -0.00001   0.00002   0.04442   0.05965
  38        3S          0.01492  -0.00011   0.00000   0.00747   0.01898
                          31        32        33        34        35
  31        4PY         0.05413
  32        4PZ         0.00000   0.14318
  33 5   H  1S          0.01885   0.00001   0.08107
  34        2S          0.04402   0.00001   0.07781   0.15217
  35        3S          0.01297  -0.00000   0.01425   0.04363   0.02295
  36 6   H  1S         -0.00005   0.00001  -0.00001  -0.00083  -0.00240
  37        2S         -0.00029   0.00001  -0.00083  -0.00687  -0.00988
  38        3S         -0.00023  -0.00000  -0.00243  -0.00993  -0.00860
                          36        37        38
  36 6   H  1S          0.07992
  37        2S          0.07749   0.15301
  38        3S          0.01438   0.04435   0.02347
     Gross orbital populations:
                           1
   1 1   C  1S          1.10435
   2        2S          0.88586
   3        2PX         0.22767
   4        2PY         0.23599
   5        2PZ         0.16633
   6        3S          0.79279
   7        3PX         0.56222
   8        3PY         0.55534
   9        3PZ         0.42360
  10        4S          0.50400
  11        4PX         0.25752
  12        4PY         0.21122
  13        4PZ         0.41225
  14 2   H  1S          0.27373
  15        2S          0.46658
  16        3S          0.08560
  17 3   H  1S          0.27831
  18        2S          0.46402
  19        3S          0.08176
  20 4   C  1S          1.10441
  21        2S          0.88584
  22        2PX         0.22190
  23        2PY         0.23624
  24        2PZ         0.16547
  25        3S          0.79269
  26        3PX         0.55173
  27        3PY         0.55717
  28        3PZ         0.41953
  29        4S          0.50621
  30        4PX         0.27684
  31        4PY         0.21715
  32        4PZ         0.41264
  33 5   H  1S          0.27329
  34        2S          0.46924
  35        3S          0.08852
  36 6   H  1S          0.26972
  37        2S          0.47092
  38        3S          0.09137
          Condensed to atoms (all electrons):
               1          2          3          4          5          6
     1  C    5.029684   0.387895   0.389004   0.601952  -0.035020  -0.034379
     2  H    0.387895   0.514979  -0.032015  -0.041288   0.005998  -0.009662
     3  H    0.389004  -0.032015   0.511610  -0.040893  -0.009513   0.005899
     4  C    0.601952  -0.041288  -0.040893   5.061141   0.383796   0.383102
     5  H   -0.035020   0.005998  -0.009513   0.383796   0.527573  -0.041783
     6  H   -0.034379  -0.009662   0.005899   0.383102  -0.041783   0.528830
 Mulliken charges:
               1
     1  C   -0.339135
     2  H    0.174094
     3  H    0.175909
     4  C   -0.347810
     5  H    0.168949
     6  H    0.167994
 Sum of Mulliken charges =   0.00000
 Mulliken charges with hydrogens summed into heavy atoms:
               1
     1  C    0.010867
     4  C   -0.010867
 Electronic spatial extent (au):  <R**2>=             83.6890
 Charge=              0.0000 electrons
 Dipole moment (field-independent basis, Debye):
    X=              0.0040    Y=              0.0296    Z=             -0.0920  Tot=              0.0967
 Quadrupole moment (field-independent basis, Debye-Ang):
   XX=            -12.2034   YY=            -12.2190   ZZ=            -15.6692
   XY=              0.0112   XZ=             -0.0009   YZ=             -0.0034
 Traceless Quadrupole moment (field-independent basis, Debye-Ang):
   XX=              1.1604   YY=              1.1449   ZZ=             -2.3053
   XY=              0.0112   XZ=             -0.0009   YZ=             -0.0034
 Octapole moment (field-independent basis, Debye-Ang**2):
  XXX=             -0.4225  YYY=             -0.0247  ZZZ=             -0.0655  XYY=              0.2608
  XXY=             -0.0275  XXZ=             -0.1255  XZZ=             -0.1055  YZZ=             -0.0913
  YYZ=             -0.1646  XYZ=             -0.0341
 Hexadecapole moment (field-independent basis, Debye-Ang**3):
 XXXX=            -34.2824 YYYY=            -55.1954 ZZZZ=            -17.8086 XXXY=             -7.2605
 XXXZ=              0.0224 YYYX=            -10.6959 YYYZ=              0.0300 ZZZX=              0.0282
 ZZZY=              0.0487 XXYY=            -16.1797 XXZZ=             -9.9216 YYZZ=            -13.6376
 XXYZ=              0.0106 YYXZ=              0.0008 ZZXY=             -3.2046
 N-N= 3.307725498938D+01 E-N=-2.478671079236D+02  KE= 7.815625616507D+01
 Orbital energies and kinetic energies (alpha):
                                 1                 2
   1         O               -10.290147         15.978365
   2         O               -10.287910         15.979905
   3         O                -0.863900          1.537861
   4         O                -0.672517          1.271670
   5         O                -0.559934          0.943151
   6         O                -0.509098          1.284899
   7         O                -0.436469          1.043974
   8         O                -0.356791          1.038304
   9         V                 0.079756          1.182080
  10         V                 0.140962          0.589111
  11         V                 0.164924          0.593393
  12         V                 0.170246          0.679271
  13         V                 0.240755          0.582970
  14         V                 0.371127          0.846705
  15         V                 0.393811          0.934380
  16         V                 0.401173          0.790166
  17         V                 0.464085          1.194980
  18         V                 0.489148          1.415671
  19         V                 0.493847          1.302085
  20         V                 0.591036          1.652201
  21         V                 0.665817          1.572456
  22         V                 0.691940          2.147405
  23         V                 0.772746          2.405420
  24         V                 0.775727          2.337721
  25         V                 0.842930          1.086495
  26         V                 0.951613          3.422984
  27         V                 2.230901          3.929222
  28         V                 2.291089          4.026217
  29         V                 2.333073          4.306430
  30         V                 2.407384          4.519236
  31         V                 2.671127          6.300885
  32         V                 2.817875          6.306395
  33         V                 2.877552          6.139616
  34         V                 2.951587          6.226200
  35         V                 3.141182          6.820030
  36         V                 3.320613          6.402010
  37         V                23.352769         60.074751
  38         V                23.705821         60.203597
 Total kinetic energy from orbitals= 7.815625616507D+01
 Calling FoFJK, ICntrl=      2127 FMM=F ISym2X=0 I1Cent= 0 IOpClX= 0 NMat=1 NMatS=1 NMatT=0.
 -------------------------------------------------------------------
 Center     Atomic                   Forces (Hartrees/Bohr)
 Number     Number              X              Y              Z
 -------------------------------------------------------------------
      1        6           0.016905011    0.011166276   -0.003686352
      2        1          -0.010798451    0.005002325    0.001855921
      3        1           0.000486860   -0.006198362    0.001654151
      4        6           0.011318603    0.010106442   -0.003975501
      5        1          -0.000022404   -0.012876636    0.002004571
      6        1          -0.017889620   -0.007200045    0.002147210
 -------------------------------------------------------------------
 Cartesian Forces:  Max     0.017889620 RMS     0.008828279

 GradGradGradGradGradGradGradGradGradGradGradGradGradGradGradGradGradGrad
 Berny optimization.
 Search for a local minimum.
 Step number   1 out of a maximum of    2
 All quantities printed in internal units (Hartrees-Bohrs-Radians)
 Second derivative matrix not updated -- first step.
 The second derivative matrix:
                          X1        Y1        Z1        X2        Y2
           X1           0.76532
           Y1           0.09345   0.85631
           Z1           0.00533   0.00806   0.16993
           X2          -0.16736   0.09785   0.00198   0.14457
           Y2           0.10341  -0.28111  -0.00699  -0.11708   0.26963
           Z2           0.00314  -0.00880  -0.05446  -0.00287   0.00720
           X3          -0.35662   0.00136  -0.00770   0.00014   0.00009
           Y3          -0.00402  -0.11117  -0.00184   0.03231   0.01932
           Z3          -0.00986  -0.00177  -0.05589   0.00145   0.00057
           X4          -0.26682  -0.17794  -0.00055   0.02267   0.01357
           Y4          -0.17841  -0.47236  -0.00090  -0.01309  -0.00784
           Z4           0.00137   0.00245  -0.09429  -0.00056  -0.00078
           X5           0.02363  -0.01364   0.00058  -0.00001   0.00000
           Y5           0.01152  -0.00665   0.00079   0.00000  -0.00000
           Z5          -0.00049   0.00032   0.01771   0.00024  -0.00012
           X6           0.00186  -0.00107   0.00036  -0.00001   0.00000
           Y6          -0.02595   0.01499   0.00088   0.00000  -0.00000
           Z6           0.00052  -0.00026   0.01701  -0.00024   0.00012
                          Z2        X3        Y3        Z3        X4
           Z2           0.02831
           X3          -0.00026   0.35663
           Y3           0.00157  -0.00153   0.07639
           Z3           0.01059   0.00837   0.00119   0.02933
           X4           0.00046  -0.00013  -0.02677  -0.00044   0.70896
           Y4          -0.00024   0.00008   0.01546   0.00029   0.12332
           Z4           0.01547  -0.00042  -0.00091   0.01606  -0.00497
           X5          -0.00023  -0.00001   0.00000   0.00024  -0.14497
           Y5           0.00015   0.00000  -0.00000  -0.00015   0.09213
           Z5           0.00925   0.00024  -0.00016  -0.00944  -0.00289
           X6          -0.00024  -0.00001   0.00000   0.00024  -0.31971
           Y6           0.00012   0.00000  -0.00000  -0.00012  -0.02431
           Z6          -0.00917  -0.00024   0.00016   0.00935   0.00839
                          Y4        Z4        X5        Y5        Z5
           Y4           0.86184
           Z4          -0.00956   0.17730
           X5           0.08350  -0.00191   0.12371
           Y5          -0.29282   0.00698  -0.10252   0.28357
           Z5           0.00862  -0.05773   0.00256  -0.00746   0.02998
           X6          -0.01539   0.00648  -0.00235  -0.00114   0.00034
           Y6          -0.10427   0.00182   0.03266   0.01591  -0.00120
           Z6           0.00179  -0.05682  -0.00124  -0.00031   0.01023
                          X6        Y6        Z6
           X6           0.32022
           Y6           0.01759   0.07338
           Z6          -0.00719  -0.00149   0.02939
 ITU=  0
     Eigenvalues ---    0.03726   0.04385   0.09263   0.10034   0.13523
     Eigenvalues ---    0.17481   0.26411   0.29124   0.52962   0.70169
     Eigenvalues ---    0.97886   1.56169
 Angle between quadratic step and forces=  35.52 degrees.
 Linear search not attempted -- first point.
 B after Tr=     0.008239    0.009302   -0.009454
         Rot=    1.000000   -0.000058    0.000032   -0.000115 Ang=  -0.02 deg.
 Variable       Old X    -DE/DX   Delta X   Delta X   Delta X     New X
                                 (Linear)    (Quad)   (Total)
    X1       -0.63686   0.01691   0.00000   0.02422   0.03271  -0.60416
    Y1       -1.10138   0.01117   0.00000   0.02709   0.03626  -1.06513
    Z1        0.01265  -0.00369   0.00000  -0.02034  -0.02995  -0.01730
    X2        0.42878  -0.01080   0.00000  -0.04375  -0.03485   0.39393
    Y2       -2.87909   0.00500   0.00000   0.01896   0.02836  -2.85073
    Z2       -0.03822   0.00186   0.00000   0.02475   0.01499  -0.02323
    X3       -2.68193   0.00049   0.00000   0.02437   0.03286  -2.64907
    Y3       -1.09048  -0.00620   0.00000  -0.02670  -0.01801  -1.10849
    Z3       -0.03960   0.00165   0.00000   0.02438   0.01463  -0.02497
    X4        0.62807   0.01132   0.00000   0.00986   0.01785   0.64592
    Y4        1.08914   0.01011   0.00000   0.01144   0.02089   1.11002
    Z4        0.00840  -0.00398   0.00000  -0.01878  -0.02807  -0.01966
    X5       -0.28590  -0.00002   0.00000  -0.02166  -0.01409  -0.29999
    Y5        2.96106  -0.01288   0.00000  -0.04145  -0.03222   2.92884
    Z5       -0.04525   0.00200   0.00000   0.02353   0.01439  -0.03086
    X6        2.72757  -0.01789   0.00000  -0.04244  -0.03448   2.69309
    Y6        1.23824  -0.00720   0.00000  -0.04519  -0.03527   1.20297
    Z6       -0.04403   0.00215   0.00000   0.02316   0.01401  -0.03001
         Item               Value     Threshold  Converged?
 Maximum Force            0.017890     0.000450     NO 
 RMS     Force            0.008828     0.000300     NO 
 Maximum Displacement     0.036256     0.001800     NO 
 RMS     Displacement     0.026624     0.001200     NO 
 Predicted change in Energy=-1.817774D-03
 GradGradGradGradGradGradGradGradGradGradGradGradGradGradGradGradGradGrad

 Unable to Open any file for archive entry.
 1\1\GINC-BHD0005\Force\RwB97XD\6-311G\C2H4\BWEIGHT\11-Jan-2023\0\\# WB
 97XD/6-311G SCF=XQC FORCE nosym pop=full guess=read\\MD Step 1000\\0,1
 \C,-0.33701341,-0.58282752,0.00669559\H,0.22690242,-1.52354848,-0.0202
 2588\H,-1.41921654,-0.57705708,-0.02095358\C,0.33236197,0.57634573,0.0
 0444689\H,-0.15129204,1.56692782,-0.02394707\H,1.44336848,0.65524795,-
 0.02329827\\Version=ES64L-G16RevC.01\HF=-78.5553293\RMSD=6.205e-09\RMS
 F=8.828e-03\Dipole=0.0015859,0.0116476,-0.0361828\Quadrupole=0.8627615
 ,0.8511894,-1.713951,0.008329,-0.0006843,-0.0025607\PG=C01 [X(C2H4)]\\
 @
 The archive entry for this job was punched.


 AND ALL THIS SCIENCE I DON'T UNDERSTAND
 IT'S JUST MY JOB FIVE DAYS A WEEK

                           -- ELTON JOHN, "ROCKET MAN"
 Job cpu time:       0 days  0 hours  0 minutes 44.1 seconds.
 Elapsed time:       0 days  0 hours  0 minutes 17.2 seconds.
 File lengths (MBytes):  RWF=    272 Int=      0 D2E=      0 Chk=     32 Scr=     32
 Normal termination of Gaussian 16 at Wed Jan 11 18:38:02 2023.
