 Entering Gaussian System, Link 0=g16
 Initial command:
 /software/gaussian/g16-c01/avx2/g16/l1.exe "/gpfs/fs2/scratch/bweight/software/many_molecule_many_mode_NAMD/src/NAMD/TEST_RESCALE/G16/DIMER/Gau-1561.inp" -scrdir="/gpfs/fs2/scratch/bweight/software/many_molecule_many_mode_NAMD/src/NAMD/TEST_RESCALE/G16/DIMER/"
 Entering Link 1 = /software/gaussian/g16-c01/avx2/g16/l1.exe PID=      1562.
  
 Copyright (c) 1988-2019, Gaussian, Inc.  All Rights Reserved.
  
 This is part of the Gaussian(R) 16 program.  It is based on
 the Gaussian(R) 09 system (copyright 2009, Gaussian, Inc.),
 the Gaussian(R) 03 system (copyright 2003, Gaussian, Inc.),
 the Gaussian(R) 98 system (copyright 1998, Gaussian, Inc.),
 the Gaussian(R) 94 system (copyright 1995, Gaussian, Inc.),
 the Gaussian 92(TM) system (copyright 1992, Gaussian, Inc.),
 the Gaussian 90(TM) system (copyright 1990, Gaussian, Inc.),
 the Gaussian 88(TM) system (copyright 1988, Gaussian, Inc.),
 the Gaussian 86(TM) system (copyright 1986, Carnegie Mellon
 University), and the Gaussian 82(TM) system (copyright 1983,
 Carnegie Mellon University). Gaussian is a federally registered
 trademark of Gaussian, Inc.
  
 This software contains proprietary and confidential information,
 including trade secrets, belonging to Gaussian, Inc.
  
 This software is provided under written license and may be
 used, copied, transmitted, or stored only in accord with that
 written license.
  
 The following legend is applicable only to US Government
 contracts under FAR:
  
                    RESTRICTED RIGHTS LEGEND
  
 Use, reproduction and disclosure by the US Government is
 subject to restrictions as set forth in subparagraphs (a)
 and (c) of the Commercial Computer Software - Restricted
 Rights clause in FAR 52.227-19.
  
 Gaussian, Inc.
 340 Quinnipiac St., Bldg. 40, Wallingford CT 06492
  
  
 ---------------------------------------------------------------
 Warning -- This program may not be used in any manner that
 competes with the business of Gaussian, Inc. or will provide
 assistance to any competitor of Gaussian, Inc.  The licensee
 of this program is prohibited from giving any competitor of
 Gaussian, Inc. access to this program.  By using this program,
 the user acknowledges that Gaussian, Inc. is engaged in the
 business of creating and licensing software in the field of
 computational chemistry and represents and warrants to the
 licensee that it is not a competitor of Gaussian, Inc. and that
 it will not use this program in any manner prohibited above.
 ---------------------------------------------------------------
  

 Cite this work as:
 Gaussian 16, Revision C.01,
 M. J. Frisch, G. W. Trucks, H. B. Schlegel, G. E. Scuseria, 
 M. A. Robb, J. R. Cheeseman, G. Scalmani, V. Barone, 
 G. A. Petersson, H. Nakatsuji, X. Li, M. Caricato, A. V. Marenich, 
 J. Bloino, B. G. Janesko, R. Gomperts, B. Mennucci, H. P. Hratchian, 
 J. V. Ortiz, A. F. Izmaylov, J. L. Sonnenberg, D. Williams-Young, 
 F. Ding, F. Lipparini, F. Egidi, J. Goings, B. Peng, A. Petrone, 
 T. Henderson, D. Ranasinghe, V. G. Zakrzewski, J. Gao, N. Rega, 
 G. Zheng, W. Liang, M. Hada, M. Ehara, K. Toyota, R. Fukuda, 
 J. Hasegawa, M. Ishida, T. Nakajima, Y. Honda, O. Kitao, H. Nakai, 
 T. Vreven, K. Throssell, J. A. Montgomery, Jr., J. E. Peralta, 
 F. Ogliaro, M. J. Bearpark, J. J. Heyd, E. N. Brothers, K. N. Kudin, 
 V. N. Staroverov, T. A. Keith, R. Kobayashi, J. Normand, 
 K. Raghavachari, A. P. Rendell, J. C. Burant, S. S. Iyengar, 
 J. Tomasi, M. Cossi, J. M. Millam, M. Klene, C. Adamo, R. Cammi, 
 J. W. Ochterski, R. L. Martin, K. Morokuma, O. Farkas, 
 J. B. Foresman, and D. J. Fox, Gaussian, Inc., Wallingford CT, 2019.
 
 ******************************************
 Gaussian 16:  ES64L-G16RevC.01  3-Jul-2019
                14-Jan-2023 
 ******************************************
 %chk=geometry.chk
 %nprocshared=24
 Will use up to   24 processors via shared memory.
 %mem=5GB
 -----------------------------------------------------------------
 # WB97XD/6-311++G** nosymm iop(2/12=3,3/33=1) guess=only pop=full
 -----------------------------------------------------------------
 1/38=1,172=1/1;
 2/12=3,15=1,17=6,18=5,40=1/2;
 3/5=4,6=6,7=1111,11=2,25=1,30=1,33=1,74=-58,89=1/1,2;
 4//1;
 6/7=3,28=1/1;
 99/5=2/99;
 ---------
 MD Step 2
 ---------
 Symbolic Z-matrix:
 Charge =  0 Multiplicity = 1
 C                    -0.33806  -0.58793  -0.00039 
 H                     0.19795  -1.51301   0.00235 
 H                    -1.40547  -0.58516   0.00235 
 C                     0.33727   0.58714  -0.00039 
 H                    -0.19325   1.51771   0.00235 
 H                     1.41017   0.58986   0.00235 
 C                    -0.33701  -0.58694   0.00073 
 H                     0.20204  -1.50966   0.0062 
 H                    -1.40222  -0.58138   0.00621 
 C                     0.33847   0.58839   0.00073 
 H                    -0.18962   1.52204   0.00621 
 H                     1.41452   0.59377   0.00622 
 
                          Input orientation:                          
 ---------------------------------------------------------------------
 Center     Atomic      Atomic             Coordinates (Angstroms)
 Number     Number       Type             X           Y           Z
 ---------------------------------------------------------------------
      1          6           0       -0.338058   -0.587927   -0.000394
      2          1           0        0.197951   -1.513007    0.002347
      3          1           0       -1.405470   -0.585161    0.002351
      4          6           0        0.337269    0.587138   -0.000395
      5          1           0       -0.193254    1.517708    0.002350
      6          1           0        1.410168    0.589860    0.002353
      7          6           0       -0.337012   -0.586936    0.000727
      8          1           0        0.202045   -1.509662    0.006203
      9          1           0       -1.402217   -0.581377    0.006211
     10          6           0        0.338473    0.588393    0.000725
     11          1           0       -0.189623    1.522036    0.006208
     12          1           0        1.414518    0.593774    0.006216
 ---------------------------------------------------------------------
                    Distance matrix (angstroms):
                    1          2          3          4          5
     1  C    0.000000
     2  H    1.069152   0.000000
     3  H    1.067420   1.852527   0.000000
     4  C    1.355302   2.104763   2.100342   0.000000
     5  H    2.110610   3.055859   2.427247   1.071178   0.000000
     6  H    2.107957   2.427245   3.050982   1.072906   1.852529
     7  C    0.001825   1.069484   1.068461   1.353923   2.109548
     8  H    1.068340   0.006543   1.854406   2.101166   3.053071
     9  H    1.064200   1.851618   0.006309   2.095539   2.422347
    10  C    1.356990   2.106094   2.102039   0.002068   1.070683
    11  H    2.115188   3.059692   2.432813   1.073170   0.006842
    12  H    2.113760   2.432812   3.056507   1.077289   1.854346
                    6          7          8          9         10
     6  H    0.000000
     7  C    2.106535   0.000000
     8  H    2.422306   1.068661   0.000000
     9  H    3.046526   1.065233   1.853475   0.000000
    10  C    1.071697   1.355610   2.102493   2.097235   0.000000
    11  H    1.851567   2.114123   3.056893   2.427907   1.072663
    12  H    0.007011   2.112336   2.427866   3.052044   1.076072
                   11         12
    11  H    0.000000
    12  H    1.853359   0.000000
 Symmetry turned off by external request.
 Stoichiometry    C4H8
 Framework group  C1[X(C4H8)]
 Deg. of freedom    30
 Full point group                 C1      NOp   1
 Rotational constants (GHZ):          73.0222507          14.8965011          12.3726127
 Standard basis: 6-311++G(d,p) (5D, 7F)
                         Coordinates in L301:                         
 ---------------------------------------------------------------------
 Center     Atomic      Atomic             Coordinates (Angstroms)
 Number     Number       Type             X           Y           Z
 ---------------------------------------------------------------------
      1          6           0       -0.338058   -0.587927   -0.000394
      2          1           0        0.197951   -1.513007    0.002347
      3          1           0       -1.405470   -0.585161    0.002351
      4          6           0        0.337269    0.587138   -0.000395
      5          1           0       -0.193254    1.517708    0.002350
      6          1           0        1.410168    0.589860    0.002353
      7          6           0       -0.337012   -0.586936    0.000727
      8          1           0        0.202045   -1.509662    0.006203
      9          1           0       -1.402217   -0.581377    0.006211
     10          6           0        0.338473    0.588393    0.000725
     11          1           0       -0.189623    1.522036    0.006208
     12          1           0        1.414518    0.593774    0.006216
 ---------------------------------------------------------------------
 FixB: optimizing general contractions.
 Ernie: Thresh=  0.10000D-02 Tol=  0.10000D-05 Strict=F.
 IA=     1 ShT= 0 ShC= 0 NL=   1 NS=   0.
 IA=     1 L=0 SC=0 ISt=    0 NBk=    0 NP=    0 IndPr=    0.
 IA=     1 ShT= 1 ShC= 0 NL=   4 NS=   3.
 IA=     1 L=1 SC=0 ISt=    0 NBk=    0 NP=    0 IndPr=    0.
 IA=     1 ShT= 2 ShC= 2 NL=   1 NS=   1.
 IA=     1 L=2 SC=2 ISt=    0 NBk=    0 NP=    0 IndPr=    0.
 IA=     2 ShT= 0 ShC= 0 NL=   4 NS=   3.
 IA=     2 L=0 SC=0 ISt=    0 NBk=    0 NP=    0 IndPr=    0.
 IA=     2 ShT= 1 ShC= 1 NL=   1 NS=   1.
 IA=     2 L=1 SC=1 ISt=    0 NBk=    0 NP=    0 IndPr=    0.
 IA=     3 ShT= 0 ShC= 0 NL=   4 NS=   3.
 IA=     3 L=0 SC=0 ISt=    0 NBk=    0 NP=    0 IndPr=    0.
 IA=     3 ShT= 1 ShC= 1 NL=   1 NS=   1.
 IA=     3 L=1 SC=1 ISt=    0 NBk=    0 NP=    0 IndPr=    0.
 IA=     4 ShT= 0 ShC= 0 NL=   1 NS=   0.
 IA=     4 L=0 SC=0 ISt=    0 NBk=    0 NP=    0 IndPr=    0.
 IA=     4 ShT= 1 ShC= 0 NL=   4 NS=   3.
 IA=     4 L=1 SC=0 ISt=    0 NBk=    0 NP=    0 IndPr=    0.
 IA=     4 ShT= 2 ShC= 2 NL=   1 NS=   1.
 IA=     4 L=2 SC=2 ISt=    0 NBk=    0 NP=    0 IndPr=    0.
 IA=     5 ShT= 0 ShC= 0 NL=   4 NS=   3.
 IA=     5 L=0 SC=0 ISt=    0 NBk=    0 NP=    0 IndPr=    0.
 IA=     5 ShT= 1 ShC= 1 NL=   1 NS=   1.
 IA=     5 L=1 SC=1 ISt=    0 NBk=    0 NP=    0 IndPr=    0.
 IA=     6 ShT= 0 ShC= 0 NL=   4 NS=   3.
 IA=     6 L=0 SC=0 ISt=    0 NBk=    0 NP=    0 IndPr=    0.
 IA=     6 ShT= 1 ShC= 1 NL=   1 NS=   1.
 IA=     6 L=1 SC=1 ISt=    0 NBk=    0 NP=    0 IndPr=    0.
 IA=     7 ShT= 0 ShC= 0 NL=   1 NS=   0.
 IA=     7 L=0 SC=0 ISt=    0 NBk=    0 NP=    0 IndPr=    0.
 IA=     7 ShT= 1 ShC= 0 NL=   4 NS=   3.
 IA=     7 L=1 SC=0 ISt=    0 NBk=    0 NP=    0 IndPr=    0.
 IA=     7 ShT= 2 ShC= 2 NL=   1 NS=   1.
 IA=     7 L=2 SC=2 ISt=    0 NBk=    0 NP=    0 IndPr=    0.
 IA=     8 ShT= 0 ShC= 0 NL=   4 NS=   3.
 IA=     8 L=0 SC=0 ISt=    0 NBk=    0 NP=    0 IndPr=    0.
 IA=     8 ShT= 1 ShC= 1 NL=   1 NS=   1.
 IA=     8 L=1 SC=1 ISt=    0 NBk=    0 NP=    0 IndPr=    0.
 IA=     9 ShT= 0 ShC= 0 NL=   4 NS=   3.
 IA=     9 L=0 SC=0 ISt=    0 NBk=    0 NP=    0 IndPr=    0.
 IA=     9 ShT= 1 ShC= 1 NL=   1 NS=   1.
 IA=     9 L=1 SC=1 ISt=    0 NBk=    0 NP=    0 IndPr=    0.
 IA=    10 ShT= 0 ShC= 0 NL=   1 NS=   0.
 IA=    10 L=0 SC=0 ISt=    0 NBk=    0 NP=    0 IndPr=    0.
 IA=    10 ShT= 1 ShC= 0 NL=   4 NS=   3.
 IA=    10 L=1 SC=0 ISt=    0 NBk=    0 NP=    0 IndPr=    0.
 IA=    10 ShT= 2 ShC= 2 NL=   1 NS=   1.
 IA=    10 L=2 SC=2 ISt=    0 NBk=    0 NP=    0 IndPr=    0.
 IA=    11 ShT= 0 ShC= 0 NL=   4 NS=   3.
 IA=    11 L=0 SC=0 ISt=    0 NBk=    0 NP=    0 IndPr=    0.
 IA=    11 ShT= 1 ShC= 1 NL=   1 NS=   1.
 IA=    11 L=1 SC=1 ISt=    0 NBk=    0 NP=    0 IndPr=    0.
 IA=    12 ShT= 0 ShC= 0 NL=   4 NS=   3.
 IA=    12 L=0 SC=0 ISt=    0 NBk=    0 NP=    0 IndPr=    0.
 IA=    12 ShT= 1 ShC= 1 NL=   1 NS=   1.
 IA=    12 L=1 SC=1 ISt=    0 NBk=    0 NP=    0 IndPr=    0.
 LdAtmC:  AtmChg=     6.000000     1.000000     1.000000     6.000000     1.000000
 LdAtmC:  AtmChg=     1.000000     6.000000     1.000000     1.000000     6.000000
 LdAtmC:  AtmChg=     1.000000     1.000000
 AtZEff=     -3.6000000     -1.0000000     -1.0000000     -3.6000000     -1.0000000
 AtZEff=     -1.0000000     -3.6000000     -1.0000000     -1.0000000     -3.6000000
 AtZEff=     -1.0000000     -1.0000000
   144 basis functions,   216 primitive gaussians,   148 cartesian basis functions
    16 alpha electrons       16 beta electrons
       nuclear repulsion energy     20099.4296756606 Hartrees.
 IS=     1 IAt=     1 ISR=     1 T=0 IP=      1 IndIP=      1 IndIPD=      0 C=  7.782018D-01  0.000000D+00                             NZ=T
 IS=     1 IAt=     1 ISR=     1 T=0 IP=      2 IndIP=      2 IndIPD=      1 C=  1.448695D+00  0.000000D+00                             NZ=T
 IS=     1 IAt=     1 ISR=     1 T=0 IP=      3 IndIP=      3 IndIPD=      2 C=  2.383089D+00  0.000000D+00                             NZ=T
 IS=     1 IAt=     1 ISR=     1 T=0 IP=      4 IndIP=      4 IndIPD=      3 C=  3.200089D+00  0.000000D+00                             NZ=T
 IS=     1 IAt=     1 ISR=     1 T=0 IP=      5 IndIP=      5 IndIPD=      4 C=  3.013004D+00  0.000000D+00                             NZ=T
 IS=     1 IAt=     1 ISR=     1 T=0 IP=      6 IndIP=      6 IndIPD=      5 C=  2.475986D-01  0.000000D+00                             NZ=T
 IS=     2 IAt=     1 ISR=     2 T=1 IP=      1 IndIP=      7 IndIPD=      0 C=  8.006285D-01  2.573592D+00                             NZ=T
 IS=     2 IAt=     1 ISR=     2 T=1 IP=      2 IndIP=      8 IndIPD=      1 C=  2.127420D+00  2.408248D+00                             NZ=T
 IS=     2 IAt=     1 ISR=     2 T=1 IP=      3 IndIP=      9 IndIPD=      2 C= -2.867911D-03  1.865281D+00                             NZ=T
 IS=     3 IAt=     1 ISR=     3 T=1 IP=      1 IndIP=     10 IndIPD=      0 C=  4.132166D-01  5.746273D-01                             NZ=T
 IS=     4 IAt=     1 ISR=     4 T=1 IP=      1 IndIP=     11 IndIPD=      0 C=  1.679761D-01  1.281846D-01                             NZ=T
 IS=     5 IAt=     1 ISR=     5 T=1 IP=      1 IndIP=     12 IndIPD=      0 C=  6.823633D-02  2.856161D-02                             NZ=T
 IS=     6 IAt=     1 ISR=     6 T=2 IP=      1 IndIP=     13 IndIPD=      1 C=  0.000000D+00  0.000000D+00  7.251278D-01  0.000000D+00 NZ=T
 IS=     7 IAt=     2 ISR=     1 T=0 IP=      1 IndIP=     14 IndIPD=      0 C=  2.550693D-01  0.000000D+00                             NZ=T
 IS=     7 IAt=     2 ISR=     1 T=0 IP=      2 IndIP=     15 IndIPD=      1 C=  4.601087D-01  0.000000D+00                             NZ=T
 IS=     7 IAt=     2 ISR=     1 T=0 IP=      3 IndIP=     16 IndIPD=      2 C=  6.783214D-01  0.000000D+00                             NZ=T
 IS=     8 IAt=     2 ISR=     2 T=0 IP=      1 IndIP=     17 IndIPD=      0 C=  3.073714D-01  0.000000D+00                             NZ=T
 IS=     9 IAt=     2 ISR=     3 T=0 IP=      1 IndIP=     18 IndIPD=      0 C=  1.293356D-01  0.000000D+00                             NZ=T
 IS=    10 IAt=     2 ISR=     4 T=0 IP=      1 IndIP=     19 IndIPD=      0 C=  5.890294D-02  0.000000D+00                             NZ=T
 IS=    11 IAt=     2 ISR=     5 T=1 IP=      1 IndIP=     20 IndIPD=      0 C=  0.000000D+00  9.948708D-01                             NZ=T
 IS=    12 IAt=     3 ISR=     1 T=0 IP=      1 IndIP=     21 IndIPD=      0 C=  2.550693D-01  0.000000D+00                             NZ=T
 IS=    12 IAt=     3 ISR=     1 T=0 IP=      2 IndIP=     22 IndIPD=      1 C=  4.601087D-01  0.000000D+00                             NZ=T
 IS=    12 IAt=     3 ISR=     1 T=0 IP=      3 IndIP=     23 IndIPD=      2 C=  6.783214D-01  0.000000D+00                             NZ=T
 IS=    13 IAt=     3 ISR=     2 T=0 IP=      1 IndIP=     24 IndIPD=      0 C=  3.073714D-01  0.000000D+00                             NZ=T
 IS=    14 IAt=     3 ISR=     3 T=0 IP=      1 IndIP=     25 IndIPD=      0 C=  1.293356D-01  0.000000D+00                             NZ=T
 IS=    15 IAt=     3 ISR=     4 T=0 IP=      1 IndIP=     26 IndIPD=      0 C=  5.890294D-02  0.000000D+00                             NZ=T
 IS=    16 IAt=     3 ISR=     5 T=1 IP=      1 IndIP=     27 IndIPD=      0 C=  0.000000D+00  9.948708D-01                             NZ=T
 IS=    17 IAt=     4 ISR=     1 T=0 IP=      1 IndIP=     28 IndIPD=      0 C=  7.782018D-01  0.000000D+00                             NZ=T
 IS=    17 IAt=     4 ISR=     1 T=0 IP=      2 IndIP=     29 IndIPD=      1 C=  1.448695D+00  0.000000D+00                             NZ=T
 IS=    17 IAt=     4 ISR=     1 T=0 IP=      3 IndIP=     30 IndIPD=      2 C=  2.383089D+00  0.000000D+00                             NZ=T
 IS=    17 IAt=     4 ISR=     1 T=0 IP=      4 IndIP=     31 IndIPD=      3 C=  3.200089D+00  0.000000D+00                             NZ=T
 IS=    17 IAt=     4 ISR=     1 T=0 IP=      5 IndIP=     32 IndIPD=      4 C=  3.013004D+00  0.000000D+00                             NZ=T
 IS=    17 IAt=     4 ISR=     1 T=0 IP=      6 IndIP=     33 IndIPD=      5 C=  2.475986D-01  0.000000D+00                             NZ=T
 IS=    18 IAt=     4 ISR=     2 T=1 IP=      1 IndIP=     34 IndIPD=      0 C=  8.006285D-01  2.573592D+00                             NZ=T
 IS=    18 IAt=     4 ISR=     2 T=1 IP=      2 IndIP=     35 IndIPD=      1 C=  2.127420D+00  2.408248D+00                             NZ=T
 IS=    18 IAt=     4 ISR=     2 T=1 IP=      3 IndIP=     36 IndIPD=      2 C= -2.867911D-03  1.865281D+00                             NZ=T
 IS=    19 IAt=     4 ISR=     3 T=1 IP=      1 IndIP=     37 IndIPD=      0 C=  4.132166D-01  5.746273D-01                             NZ=T
 IS=    20 IAt=     4 ISR=     4 T=1 IP=      1 IndIP=     38 IndIPD=      0 C=  1.679761D-01  1.281846D-01                             NZ=T
 IS=    21 IAt=     4 ISR=     5 T=1 IP=      1 IndIP=     39 IndIPD=      0 C=  6.823633D-02  2.856161D-02                             NZ=T
 IS=    22 IAt=     4 ISR=     6 T=2 IP=      1 IndIP=     40 IndIPD=      2 C=  0.000000D+00  0.000000D+00  7.251278D-01  0.000000D+00 NZ=T
 IS=    23 IAt=     5 ISR=     1 T=0 IP=      1 IndIP=     41 IndIPD=      0 C=  2.550693D-01  0.000000D+00                             NZ=T
 IS=    23 IAt=     5 ISR=     1 T=0 IP=      2 IndIP=     42 IndIPD=      1 C=  4.601087D-01  0.000000D+00                             NZ=T
 IS=    23 IAt=     5 ISR=     1 T=0 IP=      3 IndIP=     43 IndIPD=      2 C=  6.783214D-01  0.000000D+00                             NZ=T
 IS=    24 IAt=     5 ISR=     2 T=0 IP=      1 IndIP=     44 IndIPD=      0 C=  3.073714D-01  0.000000D+00                             NZ=T
 IS=    25 IAt=     5 ISR=     3 T=0 IP=      1 IndIP=     45 IndIPD=      0 C=  1.293356D-01  0.000000D+00                             NZ=T
 IS=    26 IAt=     5 ISR=     4 T=0 IP=      1 IndIP=     46 IndIPD=      0 C=  5.890294D-02  0.000000D+00                             NZ=T
 IS=    27 IAt=     5 ISR=     5 T=1 IP=      1 IndIP=     47 IndIPD=      0 C=  0.000000D+00  9.948708D-01                             NZ=T
 IS=    28 IAt=     6 ISR=     1 T=0 IP=      1 IndIP=     48 IndIPD=      0 C=  2.550693D-01  0.000000D+00                             NZ=T
 IS=    28 IAt=     6 ISR=     1 T=0 IP=      2 IndIP=     49 IndIPD=      1 C=  4.601087D-01  0.000000D+00                             NZ=T
 IS=    28 IAt=     6 ISR=     1 T=0 IP=      3 IndIP=     50 IndIPD=      2 C=  6.783214D-01  0.000000D+00                             NZ=T
 IS=    29 IAt=     6 ISR=     2 T=0 IP=      1 IndIP=     51 IndIPD=      0 C=  3.073714D-01  0.000000D+00                             NZ=T
 IS=    30 IAt=     6 ISR=     3 T=0 IP=      1 IndIP=     52 IndIPD=      0 C=  1.293356D-01  0.000000D+00                             NZ=T
 IS=    31 IAt=     6 ISR=     4 T=0 IP=      1 IndIP=     53 IndIPD=      0 C=  5.890294D-02  0.000000D+00                             NZ=T
 IS=    32 IAt=     6 ISR=     5 T=1 IP=      1 IndIP=     54 IndIPD=      0 C=  0.000000D+00  9.948708D-01                             NZ=T
 IS=    33 IAt=     7 ISR=     1 T=0 IP=      1 IndIP=     55 IndIPD=      0 C=  7.782018D-01  0.000000D+00                             NZ=T
 IS=    33 IAt=     7 ISR=     1 T=0 IP=      2 IndIP=     56 IndIPD=      1 C=  1.448695D+00  0.000000D+00                             NZ=T
 IS=    33 IAt=     7 ISR=     1 T=0 IP=      3 IndIP=     57 IndIPD=      2 C=  2.383089D+00  0.000000D+00                             NZ=T
 IS=    33 IAt=     7 ISR=     1 T=0 IP=      4 IndIP=     58 IndIPD=      3 C=  3.200089D+00  0.000000D+00                             NZ=T
 IS=    33 IAt=     7 ISR=     1 T=0 IP=      5 IndIP=     59 IndIPD=      4 C=  3.013004D+00  0.000000D+00                             NZ=T
 IS=    33 IAt=     7 ISR=     1 T=0 IP=      6 IndIP=     60 IndIPD=      5 C=  2.475986D-01  0.000000D+00                             NZ=T
 IS=    34 IAt=     7 ISR=     2 T=1 IP=      1 IndIP=     61 IndIPD=      0 C=  8.006285D-01  2.573592D+00                             NZ=T
 IS=    34 IAt=     7 ISR=     2 T=1 IP=      2 IndIP=     62 IndIPD=      1 C=  2.127420D+00  2.408248D+00                             NZ=T
 IS=    34 IAt=     7 ISR=     2 T=1 IP=      3 IndIP=     63 IndIPD=      2 C= -2.867911D-03  1.865281D+00                             NZ=T
 IS=    35 IAt=     7 ISR=     3 T=1 IP=      1 IndIP=     64 IndIPD=      0 C=  4.132166D-01  5.746273D-01                             NZ=T
 IS=    36 IAt=     7 ISR=     4 T=1 IP=      1 IndIP=     65 IndIPD=      0 C=  1.679761D-01  1.281846D-01                             NZ=T
 IS=    37 IAt=     7 ISR=     5 T=1 IP=      1 IndIP=     66 IndIPD=      0 C=  6.823633D-02  2.856161D-02                             NZ=T
 IS=    38 IAt=     7 ISR=     6 T=2 IP=      1 IndIP=     67 IndIPD=      3 C=  0.000000D+00  0.000000D+00  7.251278D-01  0.000000D+00 NZ=T
 IS=    39 IAt=     8 ISR=     1 T=0 IP=      1 IndIP=     68 IndIPD=      0 C=  2.550693D-01  0.000000D+00                             NZ=T
 IS=    39 IAt=     8 ISR=     1 T=0 IP=      2 IndIP=     69 IndIPD=      1 C=  4.601087D-01  0.000000D+00                             NZ=T
 IS=    39 IAt=     8 ISR=     1 T=0 IP=      3 IndIP=     70 IndIPD=      2 C=  6.783214D-01  0.000000D+00                             NZ=T
 IS=    40 IAt=     8 ISR=     2 T=0 IP=      1 IndIP=     71 IndIPD=      0 C=  3.073714D-01  0.000000D+00                             NZ=T
 IS=    41 IAt=     8 ISR=     3 T=0 IP=      1 IndIP=     72 IndIPD=      0 C=  1.293356D-01  0.000000D+00                             NZ=T
 IS=    42 IAt=     8 ISR=     4 T=0 IP=      1 IndIP=     73 IndIPD=      0 C=  5.890294D-02  0.000000D+00                             NZ=T
 IS=    43 IAt=     8 ISR=     5 T=1 IP=      1 IndIP=     74 IndIPD=      0 C=  0.000000D+00  9.948708D-01                             NZ=T
 IS=    44 IAt=     9 ISR=     1 T=0 IP=      1 IndIP=     75 IndIPD=      0 C=  2.550693D-01  0.000000D+00                             NZ=T
 IS=    44 IAt=     9 ISR=     1 T=0 IP=      2 IndIP=     76 IndIPD=      1 C=  4.601087D-01  0.000000D+00                             NZ=T
 IS=    44 IAt=     9 ISR=     1 T=0 IP=      3 IndIP=     77 IndIPD=      2 C=  6.783214D-01  0.000000D+00                             NZ=T
 IS=    45 IAt=     9 ISR=     2 T=0 IP=      1 IndIP=     78 IndIPD=      0 C=  3.073714D-01  0.000000D+00                             NZ=T
 IS=    46 IAt=     9 ISR=     3 T=0 IP=      1 IndIP=     79 IndIPD=      0 C=  1.293356D-01  0.000000D+00                             NZ=T
 IS=    47 IAt=     9 ISR=     4 T=0 IP=      1 IndIP=     80 IndIPD=      0 C=  5.890294D-02  0.000000D+00                             NZ=T
 IS=    48 IAt=     9 ISR=     5 T=1 IP=      1 IndIP=     81 IndIPD=      0 C=  0.000000D+00  9.948708D-01                             NZ=T
 IS=    49 IAt=    10 ISR=     1 T=0 IP=      1 IndIP=     82 IndIPD=      0 C=  7.782018D-01  0.000000D+00                             NZ=T
 IS=    49 IAt=    10 ISR=     1 T=0 IP=      2 IndIP=     83 IndIPD=      1 C=  1.448695D+00  0.000000D+00                             NZ=T
 IS=    49 IAt=    10 ISR=     1 T=0 IP=      3 IndIP=     84 IndIPD=      2 C=  2.383089D+00  0.000000D+00                             NZ=T
 IS=    49 IAt=    10 ISR=     1 T=0 IP=      4 IndIP=     85 IndIPD=      3 C=  3.200089D+00  0.000000D+00                             NZ=T
 IS=    49 IAt=    10 ISR=     1 T=0 IP=      5 IndIP=     86 IndIPD=      4 C=  3.013004D+00  0.000000D+00                             NZ=T
 IS=    49 IAt=    10 ISR=     1 T=0 IP=      6 IndIP=     87 IndIPD=      5 C=  2.475986D-01  0.000000D+00                             NZ=T
 IS=    50 IAt=    10 ISR=     2 T=1 IP=      1 IndIP=     88 IndIPD=      0 C=  8.006285D-01  2.573592D+00                             NZ=T
 IS=    50 IAt=    10 ISR=     2 T=1 IP=      2 IndIP=     89 IndIPD=      1 C=  2.127420D+00  2.408248D+00                             NZ=T
 IS=    50 IAt=    10 ISR=     2 T=1 IP=      3 IndIP=     90 IndIPD=      2 C= -2.867911D-03  1.865281D+00                             NZ=T
 IS=    51 IAt=    10 ISR=     3 T=1 IP=      1 IndIP=     91 IndIPD=      0 C=  4.132166D-01  5.746273D-01                             NZ=T
 IS=    52 IAt=    10 ISR=     4 T=1 IP=      1 IndIP=     92 IndIPD=      0 C=  1.679761D-01  1.281846D-01                             NZ=T
 IS=    53 IAt=    10 ISR=     5 T=1 IP=      1 IndIP=     93 IndIPD=      0 C=  6.823633D-02  2.856161D-02                             NZ=T
 IS=    54 IAt=    10 ISR=     6 T=2 IP=      1 IndIP=     94 IndIPD=      4 C=  0.000000D+00  0.000000D+00  7.251278D-01  0.000000D+00 NZ=T
 IS=    55 IAt=    11 ISR=     1 T=0 IP=      1 IndIP=     95 IndIPD=      0 C=  2.550693D-01  0.000000D+00                             NZ=T
 IS=    55 IAt=    11 ISR=     1 T=0 IP=      2 IndIP=     96 IndIPD=      1 C=  4.601087D-01  0.000000D+00                             NZ=T
 IS=    55 IAt=    11 ISR=     1 T=0 IP=      3 IndIP=     97 IndIPD=      2 C=  6.783214D-01  0.000000D+00                             NZ=T
 IS=    56 IAt=    11 ISR=     2 T=0 IP=      1 IndIP=     98 IndIPD=      0 C=  3.073714D-01  0.000000D+00                             NZ=T
 IS=    57 IAt=    11 ISR=     3 T=0 IP=      1 IndIP=     99 IndIPD=      0 C=  1.293356D-01  0.000000D+00                             NZ=T
 IS=    58 IAt=    11 ISR=     4 T=0 IP=      1 IndIP=    100 IndIPD=      0 C=  5.890294D-02  0.000000D+00                             NZ=T
 IS=    59 IAt=    11 ISR=     5 T=1 IP=      1 IndIP=    101 IndIPD=      0 C=  0.000000D+00  9.948708D-01                             NZ=T
 IS=    60 IAt=    12 ISR=     1 T=0 IP=      1 IndIP=    102 IndIPD=      0 C=  2.550693D-01  0.000000D+00                             NZ=T
 IS=    60 IAt=    12 ISR=     1 T=0 IP=      2 IndIP=    103 IndIPD=      1 C=  4.601087D-01  0.000000D+00                             NZ=T
 IS=    60 IAt=    12 ISR=     1 T=0 IP=      3 IndIP=    104 IndIPD=      2 C=  6.783214D-01  0.000000D+00                             NZ=T
 IS=    61 IAt=    12 ISR=     2 T=0 IP=      1 IndIP=    105 IndIPD=      0 C=  3.073714D-01  0.000000D+00                             NZ=T
 IS=    62 IAt=    12 ISR=     3 T=0 IP=      1 IndIP=    106 IndIPD=      0 C=  1.293356D-01  0.000000D+00                             NZ=T
 IS=    63 IAt=    12 ISR=     4 T=0 IP=      1 IndIP=    107 IndIPD=      0 C=  5.890294D-02  0.000000D+00                             NZ=T
 IS=    64 IAt=    12 ISR=     5 T=1 IP=      1 IndIP=    108 IndIPD=      0 C=  0.000000D+00  9.948708D-01                             NZ=T
 IExCor= 4639 DFT=T Ex+Corr=wB97XD ExCW=0 ScaHFX=  1.000000
 ScaDFX=  1.000000  1.000000  1.000000  1.000000 ScalE2=  1.000000  1.000000
 IRadAn=      5 IRanWt=     -1 IRanGd=            0 ICorTp=0 IEmpDi=121
 HFx  wShort=  0.000000 wLong=  0.200000 cFull=  0.222036 cShort=  0.000000 cLong=  0.777964
 DFx  wShort=  0.000000 wLong=  0.200000 cFull=  0.000000 cShort=  0.000000 cLong=  1.000000
 NAtoms=   12 NActive=   12 NUniq=   12 SFac= 1.00D+00 NAtFMM=   60 NAOKFM=F Big=F
 Integral buffers will be    131072 words long.
 Raffenetti 2 integral format.
 Two-electron integral symmetry is turned off.
 Nuclear repulsion after empirical dispersion term =    20099.4262856199 Hartrees.
 NPDir=0 NMtPBC=     1 NCelOv=     1 NCel=       1 NClECP=     1 NCelD=      1
         NCelK=      1 NCelE2=     1 NClLst=     1 CellRange=     0.0.
 One-electron integrals computed using PRISM.
 Entering OneElI...
 Calculate overlap and kinetic energy integrals
    NBasis = 144  MinDer = 0  MaxDer = 0
 Requested accuracy = 0.1000D-12
 PrmmSu-InSpLW:  IPartL=    0 NPrtUS=   24 NPrtUL=    1 DoSpLW=F IThBeg=    0 IThEnd=   23 NThAct=   24.
 PrSmSu:  IncTry=   512 NBBP=           2080 NTPThr=   100 NPartT=   24 Incr=           1 LDynOK=F GPUOK=F.
 PrsmSu:  NPrtUS=  24 ThrOK=T IAlg=1 LenDen=           0 ISkipM=0 DoSpLW=F IThBeg=    0 IThEnd=   23.
 Prism:   IPart=     0 DynPar=F LinDyn=F Incr=           1.
 PRISM was handed    27888941 working-precision words and  2080 shell-pairs
 PRISM was handed    27888941 working-precision words and  2080 shell-pairs
 PRISM was handed    27888941 working-precision words and  2080 shell-pairs
 PRISM was handed    27888941 working-precision words and  2080 shell-pairs
 PRISM was handed    27888941 working-precision words and  2080 shell-pairs
 PRISM was handed    27888941 working-precision words and  2080 shell-pairs
 PRISM was handed    27888941 working-precision words and  2080 shell-pairs
 PRISM was handed    27888941 working-precision words and  2080 shell-pairs
 PRISM was handed    27888941 working-precision words and  2080 shell-pairs
 PRISM was handed    27888941 working-precision words and  2080 shell-pairs
 PRISM was handed    27888941 working-precision words and  2080 shell-pairs
 PRISM was handed    27888941 working-precision words and  2080 shell-pairs
 PRISM was handed    27888941 working-precision words and  2080 shell-pairs
 PRISM was handed    27888941 working-precision words and  2080 shell-pairs
 PRISM was handed    27888941 working-precision words and  2080 shell-pairs
 PRISM was handed    27888941 working-precision words and  2080 shell-pairs
 PRISM was handed    27888941 working-precision words and  2080 shell-pairs
 PRISM was handed    27888941 working-precision words and  2080 shell-pairs
 PRISM was handed    27888941 working-precision words and  2080 shell-pairs
 PRISM was handed    27888941 working-precision words and  2080 shell-pairs
 PRISM was handed    27888941 working-precision words and  2080 shell-pairs
 PRISM was handed    27888941 working-precision words and  2080 shell-pairs
 PRISM was handed    27888941 working-precision words and  2080 shell-pairs
 PRISM was handed    27888941 working-precision words and  2080 shell-pairs
 IPart= 16 NShTot=          76 NBatch=          18 AvBLen=         4.2
 IPart= 10 NShTot=          87 NBatch=          25 AvBLen=         3.5
 IPart= 12 NShTot=          84 NBatch=          24 AvBLen=         3.5
 IPart= 20 NShTot=          76 NBatch=          18 AvBLen=         4.2
 IPart= 11 NShTot=          87 NBatch=          25 AvBLen=         3.5
 IPart=  4 NShTot=          98 NBatch=          30 AvBLen=         3.3
 IPart=  8 NShTot=          88 NBatch=          26 AvBLen=         3.4
 IPart= 15 NShTot=          84 NBatch=          24 AvBLen=         3.5
 IPart=  0 NShTot=         100 NBatch=          32 AvBLen=         3.1
 IPart=  9 NShTot=          88 NBatch=          26 AvBLen=         3.4
 IPart=  7 NShTot=          95 NBatch=          28 AvBLen=         3.4
 IPart=  3 NShTot=         100 NBatch=          32 AvBLen=         3.1
 IPart=  5 NShTot=          98 NBatch=          30 AvBLen=         3.3
 IPart= 21 NShTot=          76 NBatch=          18 AvBLen=         4.2
 IPart= 23 NShTot=          76 NBatch=          18 AvBLen=         4.2
 IPart=  6 NShTot=          95 NBatch=          28 AvBLen=         3.4
 IPart= 18 NShTot=          76 NBatch=          18 AvBLen=         4.2
 IPart= 14 NShTot=          84 NBatch=          24 AvBLen=         3.5
 IPart= 17 NShTot=          76 NBatch=          18 AvBLen=         4.2
 IPart=  1 NShTot=         100 NBatch=          32 AvBLen=         3.1
 IPart=  2 NShTot=         100 NBatch=          32 AvBLen=         3.1
 IPart= 19 NShTot=          76 NBatch=          18 AvBLen=         4.2
 IPart= 22 NShTot=          76 NBatch=          18 AvBLen=         4.2
 IPart= 13 NShTot=          84 NBatch=          24 AvBLen=         3.5
 PrSmSu:  NxtVal=             25.
 *** Overlap *** 
                1             2             3             4             5 
      1  0.100000D+01
      2  0.878444D+00  0.100000D+01
      3  0.000000D+00  0.000000D+00  0.100000D+01
      4  0.000000D+00  0.000000D+00  0.000000D+00  0.100000D+01
      5  0.000000D+00  0.000000D+00  0.000000D+00  0.000000D+00  0.100000D+01
      6  0.329179D+00  0.418800D+00  0.000000D+00  0.000000D+00  0.000000D+00
      7  0.000000D+00  0.000000D+00  0.629120D+00  0.000000D+00  0.000000D+00
      8  0.000000D+00  0.000000D+00  0.000000D+00  0.629120D+00  0.000000D+00
      9  0.000000D+00  0.000000D+00  0.000000D+00  0.000000D+00  0.629120D+00
     10  0.153761D+00  0.187145D+00  0.000000D+00  0.000000D+00  0.000000D+00
     11  0.000000D+00  0.000000D+00  0.220230D+00  0.000000D+00  0.000000D+00
     12  0.000000D+00  0.000000D+00  0.000000D+00  0.220230D+00  0.000000D+00
     13  0.000000D+00  0.000000D+00  0.000000D+00  0.000000D+00  0.220230D+00
     14  0.655625D-01  0.783157D-01  0.000000D+00  0.000000D+00  0.000000D+00
     15  0.000000D+00  0.000000D+00  0.573499D-01  0.000000D+00  0.000000D+00
     16  0.000000D+00  0.000000D+00  0.000000D+00  0.573499D-01  0.000000D+00
     17  0.000000D+00  0.000000D+00  0.000000D+00  0.000000D+00  0.573499D-01
     18  0.000000D+00  0.000000D+00  0.000000D+00  0.000000D+00  0.000000D+00
     19  0.000000D+00  0.000000D+00  0.000000D+00  0.000000D+00  0.000000D+00
     20  0.000000D+00  0.000000D+00  0.000000D+00  0.000000D+00  0.000000D+00
     21  0.000000D+00  0.000000D+00  0.000000D+00  0.000000D+00  0.000000D+00
     22  0.000000D+00  0.000000D+00  0.000000D+00  0.000000D+00  0.000000D+00
     23  0.133675D-01  0.123630D-01  0.583969D-01 -0.100785D+00  0.298597D-03
     24  0.777081D-01  0.932736D-01  0.901827D-01 -0.155643D+00  0.461125D-03
     25  0.804950D-01  0.967265D-01  0.332884D-01 -0.574514D-01  0.170212D-03
     26  0.491354D-01  0.585599D-01  0.756527D-02 -0.130566D-01  0.386830D-04
     27 -0.476520D-01 -0.576546D-01 -0.379290D-02  0.180725D+00 -0.535435D-03
     28  0.822410D-01  0.995041D-01  0.180725D+00 -0.210985D+00  0.924090D-03
     29 -0.243656D-03 -0.294801D-03 -0.535435D-03  0.924090D-03  0.100920D+00
     30  0.135102D-01  0.125181D-01 -0.117340D+00  0.304007D-03  0.301721D-03
     31  0.780120D-01  0.936517D-01 -0.180231D+00  0.466946D-03  0.463434D-03
     32  0.806008D-01  0.968554D-01 -0.663753D-01  0.171966D-03  0.170673D-03
     33  0.491585D-01  0.585875D-01 -0.150725D-01  0.390502D-04  0.387565D-04
     34  0.956630D-01  0.115809D+00 -0.316473D+00  0.108315D-02  0.107500D-02
     35 -0.247845D-03 -0.300039D-03  0.108315D-02  0.101597D+00 -0.278513D-05
     36 -0.245981D-03 -0.297783D-03  0.107500D-02 -0.278513D-05  0.101597D+00
     37  0.125985D-03  0.258148D-04  0.163855D-02  0.285106D-02  0.000000D+00
     38  0.258148D-04 -0.264145D-05  0.873955D-03  0.152068D-02  0.000000D+00
     39 -0.163855D-02 -0.873955D-03 -0.808797D-02 -0.240264D-01  0.000000D+00
     40 -0.285106D-02 -0.152068D-02 -0.240264D-01 -0.360855D-01  0.000000D+00
     41  0.000000D+00  0.000000D+00  0.000000D+00  0.000000D+00  0.572037D-02
     42  0.209531D-01  0.231878D-01  0.495469D-01  0.862114D-01  0.000000D+00
     43 -0.318455D-01 -0.375530D-01 -0.110758D-01 -0.116429D+00  0.000000D+00
     44 -0.554111D-01 -0.653421D-01 -0.116429D+00 -0.146748D+00  0.000000D+00
     45  0.000000D+00  0.000000D+00  0.000000D+00  0.000000D+00  0.558374D-01
     46  0.617713D-01  0.739739D-01  0.448119D-01  0.779725D-01  0.000000D+00
     47 -0.574192D-01 -0.700203D-01  0.521579D-01 -0.693747D-01  0.000000D+00
     48 -0.999091D-01 -0.121835D+00 -0.693747D-01 -0.286831D-01  0.000000D+00
     49  0.000000D+00  0.000000D+00  0.000000D+00  0.000000D+00  0.920285D-01
     50  0.493948D-01  0.589043D-01  0.115845D-01  0.201569D-01  0.000000D+00
     51 -0.260040D-01 -0.311942D-01  0.373576D-01 -0.104679D-01  0.000000D+00
     52 -0.452469D-01 -0.542778D-01 -0.104679D-01  0.251596D-01  0.000000D+00
     53  0.000000D+00  0.000000D+00  0.000000D+00  0.000000D+00  0.433736D-01
     54 -0.391978D-01 -0.475897D-01 -0.624178D-01 -0.108607D+00  0.000000D+00
     55  0.000000D+00  0.000000D+00  0.000000D+00  0.000000D+00 -0.561628D-01
     56  0.000000D+00  0.000000D+00  0.000000D+00  0.000000D+00 -0.977230D-01
     57 -0.341787D-01 -0.414961D-01 -0.138862D+00 -0.461733D-01  0.000000D+00
     58  0.586618D-01  0.712208D-01  0.442159D-01  0.190810D+00  0.000000D+00
     59  0.229413D-05  0.000000D+00  0.695870D-05  0.101189D-03  0.000000D+00
     60  0.243938D-02  0.249864D-02  0.101499D-02  0.147592D-01  0.192306D-04
     61  0.248591D-01  0.294039D-01  0.287954D-02  0.418723D-01  0.545576D-04
     62  0.322634D-01  0.383722D-01  0.134830D-02  0.196061D-01  0.255458D-04
     63 -0.148272D-04 -0.681424D-05  0.251939D-03 -0.294684D-03  0.000000D+00
     64 -0.215607D-03 -0.990880D-04 -0.294684D-03 -0.401288D-02 -0.558326D-05
     65  0.000000D+00  0.000000D+00  0.000000D+00 -0.558326D-05  0.272197D-03
     66  0.236022D-05  0.000000D+00  0.862116D-04  0.580811D-04  0.000000D+00
     67  0.246784D-02  0.252940D-02  0.123861D-01  0.834456D-02  0.194656D-04
     68  0.249579D-01  0.295225D-01  0.348990D-01  0.235116D-01  0.548462D-04
     69  0.323092D-01  0.384270D-01  0.163010D-01  0.109821D-01  0.256182D-04
     70 -0.182963D-03 -0.844588D-04 -0.273552D-02 -0.202999D-02 -0.473543D-05
     71 -0.123263D-03 -0.569003D-04 -0.202999D-02 -0.108995D-02 -0.319028D-05
     72  0.000000D+00  0.000000D+00 -0.473543D-05 -0.319028D-05  0.277659D-03
     73  0.999891D+00  0.878403D+00  0.316086D-02  0.299676D-02  0.338944D-02
     74  0.878403D+00  0.999967D+00  0.347934D-02  0.329870D-02  0.373094D-02
     75 -0.316086D-02 -0.347934D-02  0.999981D+00 -0.724194D-05 -0.819088D-05
     76 -0.299676D-02 -0.329870D-02 -0.724194D-05  0.999981D+00 -0.776563D-05
     77 -0.338944D-02 -0.373094D-02 -0.819088D-05 -0.776563D-05  0.999980D+00
     78  0.329178D+00  0.418797D+00  0.864080D-03  0.819219D-03  0.926565D-03
     79 -0.796605D-03 -0.104978D-02  0.629116D+00 -0.172569D-05 -0.195181D-05
     80 -0.755247D-03 -0.995280D-03 -0.172569D-05  0.629116D+00 -0.185048D-05
     81 -0.854211D-03 -0.112570D-02 -0.195181D-05 -0.185048D-05  0.629115D+00
     82  0.153761D+00  0.187145D+00  0.165989D-03  0.157371D-03  0.177992D-03
     83 -0.221457D-03 -0.274190D-03  0.220230D+00  0.000000D+00  0.000000D+00
     84 -0.209960D-03 -0.259955D-03  0.000000D+00  0.220230D+00  0.000000D+00
     85 -0.237472D-03 -0.294018D-03  0.000000D+00  0.000000D+00  0.220230D+00
     86  0.655625D-01  0.783157D-01  0.237090D-04  0.224781D-04  0.254235D-04
     87 -0.534268D-04 -0.641958D-04  0.573499D-01  0.000000D+00  0.000000D+00
     88 -0.506530D-04 -0.608629D-04  0.000000D+00  0.573499D-01  0.000000D+00
     89 -0.572903D-04 -0.688381D-04  0.000000D+00  0.000000D+00  0.573499D-01
     90  0.000000D+00  0.000000D+00  0.957273D-03  0.907574D-03 -0.205299D-02
     91  0.297558D-05  0.405809D-05 -0.177794D-02  0.000000D+00 -0.165804D-02
     92  0.282110D-05  0.384740D-05  0.000000D+00 -0.177794D-02 -0.157196D-02
     93  0.000000D+00  0.000000D+00 -0.165804D-02  0.157196D-02  0.000000D+00
     94  0.263085D-05  0.358794D-05 -0.157196D-02 -0.165804D-02  0.000000D+00
     95  0.134343D-01  0.124355D-01  0.590912D-01 -0.100845D+00  0.721742D-03
     96  0.778506D-01  0.934509D-01  0.910233D-01 -0.155340D+00  0.111176D-02
     97  0.805447D-01  0.967870D-01  0.335627D-01 -0.572779D-01  0.409936D-03
     98  0.491462D-01  0.585729D-01  0.762470D-02 -0.130123D-01  0.931284D-04
     99 -0.481979D-01 -0.583306D-01 -0.541730D-02  0.182020D+00 -0.130271D-02
    100  0.822543D-01  0.995466D-01  0.182020D+00 -0.209395D+00  0.222320D-02
    101 -0.588692D-03 -0.712452D-03 -0.130271D-02  0.222320D-02  0.101224D+00
    102  0.137791D-01  0.128108D-01 -0.118946D+00  0.732086D-03  0.738249D-03
    103  0.785785D-01  0.943568D-01 -0.180872D+00  0.111323D-02  0.112260D-02
    104  0.807974D-01  0.970947D-01 -0.663294D-01  0.408243D-03  0.411680D-03
    105  0.492013D-01  0.586389D-01 -0.150396D-01  0.925654D-04  0.933447D-04
    106  0.968085D-01  0.117318D+00 -0.317874D+00  0.258957D-02  0.261137D-02
    107 -0.595836D-03 -0.722066D-03  0.258957D-02  0.102851D+00 -0.160724D-04
    108 -0.600853D-03 -0.728145D-03  0.261137D-02 -0.160724D-04  0.102850D+00
    109  0.124069D-03  0.252344D-04  0.161864D-02  0.281442D-02  0.267788D-05
    110  0.252344D-04 -0.259542D-05  0.859386D-03  0.149426D-02  0.142177D-05
    111 -0.161864D-02 -0.859386D-03 -0.803792D-02 -0.238025D-01 -0.226477D-04
    112 -0.281442D-02 -0.149426D-02 -0.238025D-01 -0.357352D-01 -0.393788D-04
    113 -0.267788D-05 -0.142177D-05 -0.226477D-04 -0.393788D-04  0.565144D-02
    114  0.208117D-01  0.230212D-01  0.493376D-01  0.857859D-01  0.816239D-04
    115 -0.316849D-01 -0.373496D-01 -0.112457D-01 -0.116059D+00 -0.110428D-03
    116 -0.550923D-01 -0.649417D-01 -0.116059D+00 -0.146295D+00 -0.192007D-03
    117 -0.524194D-04 -0.617910D-04 -0.110428D-03 -0.192007D-03  0.555024D-01
    118  0.616311D-01  0.738029D-01  0.447943D-01  0.778862D-01  0.741075D-04
    119 -0.573909D-01 -0.699830D-01  0.519027D-01 -0.694214D-01 -0.660534D-04
    120 -0.997886D-01 -0.121683D+00 -0.694214D-01 -0.288781D-01 -0.114851D-03
    121 -0.949473D-04 -0.115780D-03 -0.660534D-04 -0.114851D-03  0.918285D-01
    122  0.493599D-01  0.588625D-01  0.115970D-01  0.201644D-01  0.191861D-04
    123 -0.260320D-01 -0.312277D-01  0.373101D-01 -0.104904D-01 -0.998148D-05
    124 -0.452632D-01 -0.542972D-01 -0.104904D-01  0.251032D-01 -0.173553D-04
    125 -0.430673D-04 -0.516629D-04 -0.998148D-05 -0.173553D-04  0.433434D-01
    126 -0.389599D-01 -0.472759D-01 -0.623068D-01 -0.108336D+00 -0.263130D-03
    127  0.554971D-04  0.673429D-04  0.422843D-04  0.234192D-03 -0.558540D-01
    128  0.964958D-04  0.117093D-03  0.234192D-03  0.314796D-03 -0.971163D-01
    129 -0.339354D-01 -0.411789D-01 -0.138214D+00 -0.460870D-01 -0.136256D-03
    130  0.583269D-01  0.707767D-01  0.444404D-01  0.190279D+00  0.234192D-03
    131  0.218419D-05  0.000000D+00  0.682159D-05  0.969675D-04  0.000000D+00
    132  0.239095D-02  0.244635D-02  0.102133D-02  0.145180D-01  0.454283D-04
    133  0.246890D-01  0.292001D-01  0.293217D-02  0.416802D-01  0.130421D-03
    134  0.321842D-01  0.382775D-01  0.137875D-02  0.195987D-01  0.613263D-04
    135 -0.146359D-04 -0.667490D-05  0.242440D-03 -0.292462D-03  0.000000D+00
    136 -0.208046D-03 -0.948823D-04 -0.292462D-03 -0.389428D-02 -0.130086D-04
    137  0.000000D+00  0.000000D+00  0.000000D+00 -0.130086D-04  0.262973D-03
    138  0.221793D-05  0.000000D+00  0.816738D-04  0.550699D-04  0.000000D+00
    139  0.240597D-02  0.246255D-02  0.121289D-01  0.817809D-02  0.457458D-04
    140  0.247420D-01  0.292636D-01  0.346923D-01  0.233918D-01  0.130847D-03
    141  0.322089D-01  0.383070D-01  0.162914D-01  0.109847D-01  0.614453D-04
    142 -0.174855D-03 -0.799366D-04 -0.263333D-02 -0.195482D-02 -0.109347D-04
    143 -0.117899D-03 -0.538985D-04 -0.195482D-02 -0.105222D-02 -0.737288D-05
    144  0.000000D+00  0.000000D+00 -0.109347D-04 -0.737288D-05  0.265808D-03
                6             7             8             9            10 
      6  0.100000D+01
      7  0.000000D+00  0.100000D+01
      8  0.000000D+00  0.000000D+00  0.100000D+01
      9  0.000000D+00  0.000000D+00  0.000000D+00  0.100000D+01
     10  0.774697D+00  0.000000D+00  0.000000D+00  0.000000D+00  0.100000D+01
     11  0.000000D+00  0.653461D+00  0.000000D+00  0.000000D+00  0.000000D+00
     12  0.000000D+00  0.000000D+00  0.653461D+00  0.000000D+00  0.000000D+00
     13  0.000000D+00  0.000000D+00  0.000000D+00  0.653461D+00  0.000000D+00
     14  0.410096D+00  0.000000D+00  0.000000D+00  0.000000D+00  0.774408D+00
     15  0.000000D+00  0.226365D+00  0.000000D+00  0.000000D+00  0.000000D+00
     16  0.000000D+00  0.000000D+00  0.226365D+00  0.000000D+00  0.000000D+00
     17  0.000000D+00  0.000000D+00  0.000000D+00  0.226365D+00  0.000000D+00
     18  0.000000D+00  0.000000D+00  0.000000D+00  0.000000D+00  0.000000D+00
     19  0.000000D+00  0.000000D+00  0.000000D+00  0.000000D+00  0.000000D+00
     20  0.000000D+00  0.000000D+00  0.000000D+00  0.000000D+00  0.000000D+00
     21  0.000000D+00  0.000000D+00  0.000000D+00  0.000000D+00  0.000000D+00
     22  0.000000D+00  0.000000D+00  0.000000D+00  0.000000D+00  0.000000D+00
     23  0.197922D+00  0.200757D+00 -0.346480D+00  0.102652D-02  0.271995D+00
     24  0.438863D+00  0.248889D+00 -0.429549D+00  0.127263D-02  0.589016D+00
     25  0.469179D+00  0.115829D+00 -0.199906D+00  0.592262D-03  0.764495D+00
     26  0.315732D+00  0.308213D-01 -0.531935D-01  0.157597D-03  0.632880D+00
     27 -0.199823D+00  0.112580D+00  0.295373D+00 -0.875103D-03 -0.109906D+00
     28  0.344869D+00  0.295373D+00 -0.226050D+00  0.151031D-02  0.189683D+00
     29 -0.102174D-02 -0.875103D-03  0.151031D-02  0.283720D+00 -0.561975D-03
     30  0.198835D+00 -0.401643D+00  0.104058D-02  0.103276D-02  0.272464D+00
     31  0.439993D+00 -0.496916D+00  0.128742D-02  0.127773D-02  0.589800D+00
     32  0.469705D+00 -0.230922D+00  0.598276D-03  0.593776D-03  0.765104D+00
     33  0.315872D+00 -0.614051D-01  0.159089D-03  0.157893D-03  0.633121D+00
     34  0.399479D+00 -0.396523D+00  0.176526D-02  0.175198D-02  0.219221D+00
     35 -0.103498D-02  0.176526D-02  0.284825D+00 -0.453906D-05 -0.567960D-03
     36 -0.102719D-02  0.175198D-02 -0.453906D-05  0.284825D+00 -0.563688D-03
     37  0.209531D-01  0.318455D-01  0.554111D-01  0.000000D+00  0.617713D-01
     38  0.231878D-01  0.375530D-01  0.653421D-01  0.000000D+00  0.739739D-01
     39 -0.495469D-01 -0.110758D-01 -0.116429D+00  0.000000D+00 -0.448119D-01
     40 -0.862114D-01 -0.116429D+00 -0.146748D+00  0.000000D+00 -0.779725D-01
     41  0.000000D+00  0.000000D+00  0.000000D+00  0.558374D-01  0.000000D+00
     42  0.204822D+00  0.181748D+00  0.316240D+00  0.000000D+00  0.371863D+00
     43 -0.181748D+00  0.435499D-01 -0.280613D+00  0.000000D+00 -0.152736D+00
     44 -0.316240D+00 -0.280613D+00 -0.283443D+00  0.000000D+00 -0.265760D+00
     45  0.000000D+00  0.000000D+00  0.000000D+00  0.204822D+00  0.000000D+00
     46  0.371863D+00  0.152736D+00  0.265760D+00  0.000000D+00  0.620344D+00
     47 -0.278331D+00  0.199348D+00 -0.198916D+00  0.000000D+00 -0.302067D+00
     48 -0.484295D+00 -0.198916D+00 -0.324439D-01  0.000000D+00 -0.525595D+00
     49  0.000000D+00  0.000000D+00  0.000000D+00  0.313668D+00  0.000000D+00
     50  0.315120D+00  0.464569D-01  0.808347D-01  0.000000D+00  0.620943D+00
     51 -0.154345D+00  0.151186D+00 -0.395925D-01  0.000000D+00 -0.254978D+00
     52 -0.268559D+00 -0.395925D-01  0.105049D+00  0.000000D+00 -0.443660D+00
     53  0.000000D+00  0.000000D+00  0.000000D+00  0.173940D+00  0.000000D+00
     54 -0.148555D+00 -0.656210D-01 -0.114180D+00  0.000000D+00 -0.538437D-01
     55  0.000000D+00  0.000000D+00  0.000000D+00 -0.143994D+00  0.000000D+00
     56  0.000000D+00  0.000000D+00  0.000000D+00 -0.250548D+00  0.000000D+00
     57 -0.129534D+00 -0.273702D+00  0.248560D-01  0.000000D+00 -0.469494D-01
     58  0.222322D+00 -0.279261D-01  0.243367D+00  0.000000D+00  0.805804D-01
     59  0.333429D-02  0.901087D-03  0.131030D-01  0.170725D-04  0.583149D-01
     60  0.439160D-01  0.672833D-02  0.978387D-01  0.127479D-03  0.179194D+00
     61  0.172247D+00  0.114879D-01  0.167049D+00  0.217656D-03  0.374990D+00
     62  0.212441D+00  0.560247D-02  0.814673D-01  0.106148D-03  0.449867D+00
     63 -0.166908D-02  0.838625D-02 -0.561572D-02 -0.731701D-05 -0.702204D-02
     64 -0.242706D-01 -0.561572D-02 -0.728875D-01 -0.106399D-03 -0.102110D+00
     65 -0.316234D-04 -0.731701D-05 -0.106399D-03  0.877230D-02 -0.133044D-03
     66  0.338035D-02  0.110295D-01  0.743060D-02  0.173336D-04  0.586191D-01
     67  0.442590D-01  0.818659D-01  0.551534D-01  0.128658D-03  0.179916D+00
     68  0.172831D+00  0.139164D+00  0.937555D-01  0.218706D-03  0.375894D+00
     69  0.212726D+00  0.677297D-01  0.456298D-01  0.106442D-03  0.450386D+00
     70 -0.203891D-01 -0.480799D-01 -0.383715D-01 -0.895104D-04 -0.851916D-01
     71 -0.137362D-01 -0.383715D-01 -0.169749D-01 -0.603035D-04 -0.573939D-01
     72 -0.320429D-04 -0.895104D-04 -0.603035D-04  0.887596D-02 -0.133885D-03
     73  0.329178D+00  0.796605D-03  0.755247D-03  0.854211D-03  0.153761D+00
     74  0.418797D+00  0.104978D-02  0.995280D-03  0.112570D-02  0.187145D+00
     75 -0.864080D-03  0.629116D+00 -0.172569D-05 -0.195181D-05 -0.165989D-03
     76 -0.819219D-03 -0.172569D-05  0.629116D+00 -0.185048D-05 -0.157371D-03
     77 -0.926565D-03 -0.195181D-05 -0.185048D-05  0.629115D+00 -0.177992D-03
     78  0.999997D+00  0.137348D-02  0.130217D-02  0.147280D-02  0.774696D+00
     79 -0.137348D-02  0.999995D+00 -0.178850D-05 -0.202286D-05 -0.492517D-03
     80 -0.130217D-02 -0.178850D-05  0.999995D+00 -0.191784D-05 -0.466947D-03
     81 -0.147280D-02 -0.202286D-05 -0.191784D-05  0.999995D+00 -0.528133D-03
     82  0.774696D+00  0.492517D-03  0.466947D-03  0.528133D-03  0.999999D+00
     83 -0.897514D-03  0.653459D+00  0.000000D+00  0.000000D+00 -0.753706D-03
     84 -0.850918D-03  0.000000D+00  0.653459D+00  0.000000D+00 -0.714575D-03
     85 -0.962417D-03  0.000000D+00  0.000000D+00  0.653459D+00 -0.808209D-03
     86  0.410096D+00  0.935817D-04  0.887231D-04  0.100349D-03  0.774407D+00
     87 -0.310908D-03  0.226365D+00  0.000000D+00  0.000000D+00 -0.492211D-03
     88 -0.294767D-03  0.000000D+00  0.226365D+00  0.000000D+00 -0.466657D-03
     89 -0.333391D-03  0.000000D+00  0.000000D+00  0.226365D+00 -0.527805D-03
     90  0.000000D+00  0.770212D-03  0.730224D-03 -0.165182D-02  0.000000D+00
     91  0.196478D-05 -0.143051D-02  0.000000D+00 -0.133404D-02  0.000000D+00
     92  0.186278D-05  0.000000D+00 -0.143051D-02 -0.126478D-02  0.000000D+00
     93  0.000000D+00 -0.133404D-02  0.126478D-02  0.000000D+00  0.000000D+00
     94  0.173716D-05 -0.126478D-02 -0.133404D-02  0.000000D+00  0.000000D+00
     95  0.198349D+00  0.202730D+00 -0.345978D+00  0.247615D-02  0.272215D+00
     96  0.439393D+00  0.251092D+00 -0.428512D+00  0.306685D-02  0.589384D+00
     97  0.469426D+00  0.116775D+00 -0.199288D+00  0.142630D-02  0.764781D+00
     98  0.315798D+00  0.310632D-01 -0.530122D-01  0.379407D-03  0.632993D+00
     99 -0.201717D+00  0.110157D+00  0.297094D+00 -0.212629D-02 -0.110829D+00
    100  0.344249D+00  0.297094D+00 -0.222776D+00  0.362871D-02  0.189140D+00
    101 -0.246378D-02 -0.212629D-02  0.362871D-02  0.284217D+00 -0.135367D-02
    102  0.200538D+00 -0.403870D+00  0.248573D-02  0.250666D-02  0.273335D+00
    103  0.442097D+00 -0.497770D+00  0.306367D-02  0.308946D-02  0.591257D+00
    104  0.470681D+00 -0.230697D+00  0.141989D-02  0.143184D-02  0.766234D+00
    105  0.316131D+00 -0.612682D-01  0.377093D-03  0.380268D-03  0.633569D+00
    106  0.401142D+00 -0.395213D+00  0.419820D-02  0.423354D-02  0.219206D+00
    107 -0.246894D-02  0.419820D-02  0.286863D+00 -0.260566D-04 -0.134917D-02
    108 -0.248973D-02  0.423354D-02 -0.260566D-04  0.286863D+00 -0.136053D-02
    109  0.208117D-01  0.316849D-01  0.550923D-01  0.524194D-04  0.616311D-01
    110  0.230212D-01  0.373496D-01  0.649417D-01  0.617910D-04  0.738029D-01
    111 -0.493376D-01 -0.112457D-01 -0.116059D+00 -0.110428D-03 -0.447943D-01
    112 -0.857859D-01 -0.116059D+00 -0.146295D+00 -0.192007D-03 -0.778862D-01
    113 -0.816239D-04 -0.110428D-03 -0.192007D-03  0.555024D-01 -0.741075D-04
    114  0.204014D+00  0.181353D+00  0.315329D+00  0.300030D-03  0.371183D+00
    115 -0.181353D+00  0.428050D-01 -0.280303D+00 -0.266704D-03 -0.152729D+00
    116 -0.315329D+00 -0.280303D+00 -0.283364D+00 -0.463733D-03 -0.265557D+00
    117 -0.300030D-03 -0.266704D-03 -0.463733D-03  0.204014D+00 -0.252674D-03
    118  0.371183D+00  0.152729D+00  0.265557D+00  0.252674D-03  0.619606D+00
    119 -0.278318D+00  0.198577D+00 -0.199118D+00 -0.189458D-03 -0.302246D+00
    120 -0.483926D+00 -0.199118D+00 -0.331227D-01 -0.329421D-03 -0.525531D+00
    121 -0.460448D-03 -0.189458D-03 -0.329421D-03  0.313095D+00 -0.500034D-03
    122  0.314913D+00  0.465091D-01  0.808679D-01  0.769445D-04  0.620601D+00
    123 -0.154518D+00  0.151005D+00 -0.396794D-01 -0.377543D-04 -0.255292D+00
    124 -0.268669D+00 -0.396794D-01  0.104833D+00 -0.656454D-04 -0.443890D+00
    125 -0.255634D-03 -0.377543D-04 -0.656454D-04  0.173826D+00 -0.422354D-03
    126 -0.148263D+00 -0.658149D-01 -0.114436D+00 -0.520393D-03 -0.538737D-01
    127  0.211195D-03 -0.257281D-04  0.368367D-03 -0.143608D+00  0.767413D-04
    128  0.367216D-03  0.368367D-03  0.402915D-03 -0.249699D+00  0.133434D-03
    129 -0.129142D+00 -0.273155D+00  0.244499D-01 -0.214321D-03 -0.469258D-01
    130  0.221964D+00 -0.270399D-01  0.243542D+00  0.368367D-03  0.806543D-01
    131  0.325612D-02  0.901987D-03  0.128215D-01  0.401199D-04  0.577929D-01
    132  0.433294D-01  0.680489D-02  0.967301D-01  0.302678D-03  0.177952D+00
    133  0.171242D+00  0.117072D-01  0.166415D+00  0.520729D-03  0.373433D+00
    134  0.211950D+00  0.572967D-02  0.814460D-01  0.254853D-03  0.448971D+00
    135 -0.167653D-02  0.819843D-02 -0.565238D-02 -0.176869D-04 -0.713772D-02
    136 -0.238315D-01 -0.565238D-02 -0.717513D-01 -0.251415D-03 -0.101461D+00
    137 -0.745713D-04 -0.176869D-04 -0.251415D-03  0.859528D-02 -0.317482D-03
    138  0.328032D-02  0.107291D-01  0.723428D-02  0.404664D-04  0.579553D-01
    139  0.435117D-01  0.806839D-01  0.544024D-01  0.304311D-03  0.178339D+00
    140  0.171555D+00  0.138480D+00  0.933724D-01  0.522298D-03  0.373919D+00
    141  0.212103D+00  0.676995D-01  0.456474D-01  0.255338D-03  0.449250D+00
    142 -0.199208D-01 -0.471357D-01 -0.376149D-01 -0.210407D-03 -0.844975D-01
    143 -0.134319D-01 -0.376149D-01 -0.167117D-01 -0.141870D-03 -0.569737D-01
    144 -0.751343D-04 -0.210407D-03 -0.141870D-03  0.864995D-02 -0.318694D-03
               11            12            13            14            15 
     11  0.100000D+01
     12  0.000000D+00  0.100000D+01
     13  0.000000D+00  0.000000D+00  0.100000D+01
     14  0.000000D+00  0.000000D+00  0.000000D+00  0.100000D+01
     15  0.653055D+00  0.000000D+00  0.000000D+00  0.000000D+00  0.100000D+01
     16  0.000000D+00  0.653055D+00  0.000000D+00  0.000000D+00  0.000000D+00
     17  0.000000D+00  0.000000D+00  0.653055D+00  0.000000D+00  0.000000D+00
     18  0.000000D+00  0.000000D+00  0.000000D+00  0.000000D+00  0.000000D+00
     19  0.000000D+00  0.000000D+00  0.000000D+00  0.000000D+00  0.000000D+00
     20  0.000000D+00  0.000000D+00  0.000000D+00  0.000000D+00  0.000000D+00
     21  0.000000D+00  0.000000D+00  0.000000D+00  0.000000D+00  0.000000D+00
     22  0.000000D+00  0.000000D+00  0.000000D+00  0.000000D+00  0.000000D+00
     23  0.188136D+00 -0.324698D+00  0.961985D-03  0.177486D+00  0.726633D-01
     24  0.314687D+00 -0.543107D+00  0.160907D-02  0.443902D+00  0.165902D+00
     25  0.244487D+00 -0.421952D+00  0.125012D-02  0.772822D+00  0.229722D+00
     26  0.969846D-01 -0.167383D+00  0.495905D-03  0.915890D+00  0.175179D+00
     27  0.213232D+00  0.122784D+00 -0.363773D-03 -0.252296D-01  0.108909D+00
     28  0.122784D+00  0.724663D-01  0.627824D-03  0.435429D-01  0.174424D-01
     29 -0.363773D-03  0.627824D-03  0.284373D+00 -0.129005D-03 -0.516766D-04
     30 -0.375302D+00  0.972339D-03  0.965026D-03  0.177585D+00 -0.144783D+00
     31 -0.627504D+00  0.162575D-02  0.161352D-02  0.444129D+00 -0.330547D+00
     32 -0.487261D+00  0.126240D-02  0.125291D-02  0.773136D+00 -0.457655D+00
     33 -0.193210D+00  0.500571D-03  0.496806D-03  0.916130D+00 -0.348943D+00
     34  0.224500D-02  0.732136D-03  0.726629D-03  0.502699D-01  0.789791D-01
     35  0.732136D-03  0.284832D+00 -0.188256D-05 -0.130240D-03  0.103895D-03
     36  0.726629D-03 -0.188256D-05  0.284832D+00 -0.129260D-03  0.103113D-03
     37  0.574192D-01  0.999091D-01  0.000000D+00  0.493948D-01  0.260040D-01
     38  0.700203D-01  0.121835D+00  0.000000D+00  0.589043D-01  0.311942D-01
     39  0.521579D-01 -0.693747D-01  0.000000D+00 -0.115845D-01  0.373576D-01
     40 -0.693747D-01 -0.286831D-01  0.000000D+00 -0.201569D-01 -0.104679D-01
     41  0.000000D+00  0.000000D+00  0.920285D-01  0.000000D+00  0.000000D+00
     42  0.278331D+00  0.484295D+00  0.000000D+00  0.315120D+00  0.154345D+00
     43  0.199348D+00 -0.198916D+00  0.000000D+00 -0.464569D-01  0.151186D+00
     44 -0.198916D+00 -0.324439D-01  0.000000D+00 -0.808347D-01 -0.395925D-01
     45  0.000000D+00  0.000000D+00  0.313668D+00  0.000000D+00  0.000000D+00
     46  0.302067D+00  0.525595D+00  0.000000D+00  0.620943D+00  0.254978D+00
     47  0.473256D+00 -0.255931D+00  0.000000D+00 -0.139856D+00  0.466209D+00
     48 -0.255931D+00  0.175025D+00  0.000000D+00 -0.243349D+00 -0.999265D-01
     49  0.000000D+00  0.000000D+00  0.620344D+00  0.000000D+00  0.000000D+00
     50  0.139856D+00  0.243349D+00  0.000000D+00  0.866188D+00  0.231346D+00
     51  0.466209D+00 -0.999265D-01  0.000000D+00 -0.231346D+00  0.804399D+00
     52 -0.999265D-01  0.349767D+00  0.000000D+00 -0.402541D+00 -0.107513D+00
     53  0.000000D+00  0.000000D+00  0.523639D+00  0.000000D+00  0.000000D+00
     54  0.123669D-01  0.215183D-01  0.000000D+00 -0.538914D-02  0.732924D-02
     55  0.000000D+00  0.000000D+00 -0.951065D-01  0.000000D+00  0.000000D+00
     56  0.000000D+00  0.000000D+00 -0.165485D+00  0.000000D+00  0.000000D+00
     57 -0.132202D+00  0.100939D+00  0.000000D+00 -0.469909D-02 -0.197006D-01
     58 -0.101817D+00  0.156755D-01  0.000000D+00  0.806517D-02 -0.261705D-01
     59  0.108868D-01  0.158309D+00  0.206268D-03  0.107633D+00  0.119039D-01
     60  0.258631D-01  0.376084D+00  0.490019D-03  0.281183D+00  0.283897D-01
     61  0.323973D-01  0.471099D+00  0.613819D-03  0.537481D+00  0.431612D-01
     62  0.186240D-01  0.270817D+00  0.352862D-03  0.725038D+00  0.374633D-01
     63  0.660273D-01 -0.178561D-01 -0.232657D-04 -0.417808D-02  0.725039D-01
     64 -0.178561D-01 -0.192396D+00 -0.338313D-03 -0.607547D-01 -0.657470D-02
     65 -0.232657D-04 -0.338313D-03  0.672548D-01 -0.791605D-04 -0.856651D-05
     66  0.132123D+00  0.890120D-01  0.207641D-03  0.107815D+00  0.143960D+00
     67  0.313506D+00  0.211210D+00  0.492696D-03  0.281618D+00  0.343280D+00
     68  0.392077D+00  0.264144D+00  0.616177D-03  0.538141D+00  0.521728D+00
     69  0.225109D+00  0.151657D+00  0.353774D-03  0.725611D+00  0.452654D+00
     70 -0.112277D+00 -0.121173D+00 -0.282664D-03 -0.505258D-01  0.706426D-02
     71 -0.121173D+00 -0.140509D-01 -0.190432D-03 -0.340394D-01 -0.444729D-01
     72 -0.282664D-03 -0.190432D-03  0.675833D-01 -0.794048D-04 -0.103743D-03
     73  0.221457D-03  0.209960D-03  0.237472D-03  0.655625D-01  0.534268D-04
     74  0.274190D-03  0.259955D-03  0.294018D-03  0.783157D-01  0.641958D-04
     75  0.220230D+00  0.000000D+00  0.000000D+00 -0.237090D-04  0.573499D-01
     76  0.000000D+00  0.220230D+00  0.000000D+00 -0.224781D-04  0.000000D+00
     77  0.000000D+00  0.000000D+00  0.220230D+00 -0.254235D-04  0.000000D+00
     78  0.897514D-03  0.850918D-03  0.962417D-03  0.410096D+00  0.310908D-03
     79  0.653459D+00  0.000000D+00  0.000000D+00 -0.935817D-04  0.226365D+00
     80  0.000000D+00  0.653459D+00  0.000000D+00 -0.887231D-04  0.000000D+00
     81  0.000000D+00  0.000000D+00  0.653459D+00 -0.100349D-03  0.000000D+00
     82  0.753706D-03  0.714575D-03  0.808209D-03  0.774407D+00  0.492211D-03
     83  0.999999D+00  0.000000D+00  0.000000D+00 -0.269979D-03  0.653054D+00
     84  0.000000D+00  0.999999D+00  0.000000D+00 -0.255963D-03  0.000000D+00
     85  0.000000D+00  0.000000D+00  0.999998D+00 -0.289502D-03  0.000000D+00
     86  0.269979D-03  0.255963D-03  0.289502D-03  0.100000D+01  0.413410D-03
     87  0.653054D+00  0.000000D+00  0.000000D+00 -0.413410D-03  0.100000D+01
     88  0.000000D+00  0.653054D+00  0.000000D+00 -0.391947D-03  0.000000D+00
     89  0.000000D+00  0.000000D+00  0.653054D+00 -0.443305D-03  0.000000D+00
     90  0.184443D-03  0.174867D-03 -0.395561D-03  0.000000D+00  0.202863D-04
     91 -0.342566D-03  0.000000D+00 -0.319464D-03  0.000000D+00 -0.376777D-04
     92  0.000000D+00 -0.342566D-03 -0.302878D-03  0.000000D+00  0.000000D+00
     93 -0.319465D-03  0.302879D-03  0.000000D+00  0.000000D+00 -0.351368D-04
     94 -0.302878D-03 -0.319464D-03  0.000000D+00  0.000000D+00 -0.333126D-04
     95  0.189726D+00 -0.323786D+00  0.231733D-02  0.177532D+00  0.732374D-01
     96  0.317288D+00 -0.541481D+00  0.387536D-02  0.444009D+00  0.167209D+00
     97  0.246446D+00 -0.420583D+00  0.301010D-02  0.772969D+00  0.231520D+00
     98  0.977428D-01 -0.166807D+00  0.119383D-02  0.916003D+00  0.176538D+00
     99  0.212302D+00  0.123368D+00 -0.882938D-03 -0.254288D-01  0.108782D+00
    100  0.123368D+00  0.740521D-01  0.150682D-02  0.433966D-01  0.175165D-01
    101 -0.882938D-03  0.150682D-02  0.284580D+00 -0.310588D-03 -0.125365D-03
    102 -0.375356D+00  0.231024D-02  0.232969D-02  0.177769D+00 -0.144492D+00
    103 -0.627136D+00  0.385989D-02  0.389239D-02  0.444549D+00 -0.329851D+00
    104 -0.486494D+00  0.299427D-02  0.301947D-02  0.773718D+00 -0.456604D+00
    105 -0.192757D+00  0.118638D-02  0.119637D-02  0.916573D+00 -0.348048D+00
    106  0.397670D-02  0.173386D-02  0.174846D-02  0.501675D-01  0.793036D-01
    107  0.173386D-02  0.285676D+00 -0.107614D-04 -0.308771D-03  0.245561D-03
    108  0.174846D-02 -0.107614D-04  0.285675D+00 -0.311370D-03  0.247628D-03
    109  0.573909D-01  0.997886D-01  0.949473D-04  0.493599D-01  0.260320D-01
    110  0.699830D-01  0.121683D+00  0.115780D-03  0.588625D-01  0.312277D-01
    111  0.519027D-01 -0.694214D-01 -0.660534D-04 -0.115970D-01  0.373101D-01
    112 -0.694214D-01 -0.288781D-01 -0.114851D-03 -0.201644D-01 -0.104904D-01
    113 -0.660534D-04 -0.114851D-03  0.918285D-01 -0.191861D-04 -0.998148D-05
    114  0.278318D+00  0.483926D+00  0.460448D-03  0.314913D+00  0.154518D+00
    115  0.198577D+00 -0.199118D+00 -0.189458D-03 -0.465091D-01  0.151005D+00
    116 -0.199118D+00 -0.331227D-01 -0.329421D-03 -0.808679D-01 -0.396794D-01
    117 -0.189458D-03 -0.329421D-03  0.313095D+00 -0.769445D-04 -0.377543D-04
    118  0.302246D+00  0.525531D+00  0.500034D-03  0.620601D+00  0.255292D+00
    119  0.472169D+00 -0.256355D+00 -0.243918D-03 -0.140028D+00  0.465748D+00
    120 -0.256355D+00  0.173867D+00 -0.424114D-03 -0.243475D+00 -0.100156D+00
    121 -0.243918D-03 -0.424114D-03  0.619605D+00 -0.231662D-03 -0.952971D-04
    122  0.140028D+00  0.243475D+00  0.231662D-03  0.865878D+00  0.231676D+00
    123  0.465748D+00 -0.100156D+00 -0.952971D-04 -0.231676D+00  0.803891D+00
    124 -0.100156D+00  0.349203D+00 -0.165698D-03 -0.402827D+00 -0.107781D+00
    125 -0.952971D-04 -0.165698D-03  0.523350D+00 -0.383283D-03 -0.102552D-03
    126  0.122591D-01  0.213155D-01 -0.252205D-03 -0.539895D-02  0.733068D-02
    127 -0.965775D-04  0.105617D-03 -0.950921D-01  0.769062D-05 -0.248971D-04
    128  0.105617D-03  0.263211D-04 -0.165342D+00  0.133721D-04  0.668778D-05
    129 -0.132235D+00  0.100759D+00 -0.614493D-04 -0.470267D-02 -0.197259D-01
    130 -0.101502D+00  0.159098D-01  0.105617D-03  0.808276D-02 -0.261666D-01
    131  0.110598D-01  0.157213D+00  0.491936D-03  0.107319D+00  0.121668D-01
    132  0.263279D-01  0.374246D+00  0.117105D-02  0.280434D+00  0.290240D-01
    133  0.330717D-01  0.470107D+00  0.147101D-02  0.536342D+00  0.441496D-01
    134  0.190529D-01  0.270834D+00  0.847466D-03  0.724049D+00  0.383502D-01
    135  0.654116D-01 -0.181876D-01 -0.569109D-04 -0.427061D-02  0.722740D-01
    136 -0.181876D-01 -0.191842D+00 -0.808977D-03 -0.607058D-01 -0.673412D-02
    137 -0.569109D-04 -0.808977D-03  0.666886D-01 -0.189955D-03 -0.210717D-04
    138  0.130951D+00  0.882960D-01  0.493902D-03  0.107417D+00  0.143785D+00
    139  0.311531D+00  0.210055D+00  0.117498D-02  0.280668D+00  0.342974D+00
    140  0.390987D+00  0.263629D+00  0.147466D-02  0.536697D+00  0.521623D+00
    141  0.225100D+00  0.151777D+00  0.848995D-03  0.724358D+00  0.452997D+00
    142 -0.111972D+00 -0.120585D+00 -0.674517D-03 -0.504684D-01  0.671103D-02
    143 -0.120585D+00 -0.144395D-01 -0.454803D-03 -0.340291D-01 -0.445701D-01
    144 -0.674517D-03 -0.454803D-03  0.668642D-01 -0.190349D-03 -0.249312D-03
               16            17            18            19            20 
     16  0.100000D+01
     17  0.000000D+00  0.100000D+01
     18  0.000000D+00  0.000000D+00  0.100000D+01
     19  0.000000D+00  0.000000D+00  0.000000D+00  0.100000D+01
     20  0.000000D+00  0.000000D+00  0.000000D+00  0.000000D+00  0.100000D+01
     21  0.000000D+00  0.000000D+00  0.000000D+00  0.000000D+00  0.000000D+00
     22  0.000000D+00  0.000000D+00  0.000000D+00  0.000000D+00  0.000000D+00
     23 -0.125407D+00  0.371544D-03 -0.211467D+00  0.941464D-03 -0.162484D-02
     24 -0.286324D+00  0.848294D-03 -0.133282D+00  0.593376D-03 -0.102409D-02
     25 -0.396469D+00  0.117462D-02 -0.237529D-01  0.105749D-03 -0.182509D-03
     26 -0.302335D+00  0.895730D-03 -0.231935D-02  0.103259D-04 -0.178211D-04
     27  0.174424D-01 -0.516766D-04  0.487092D-01  0.329319D-03  0.132710D-02
     28  0.889119D-01  0.891869D-04 -0.840655D-01  0.132710D-02 -0.119213D-02
     29  0.891869D-04  0.119015D+00  0.215131D-02  0.214785D+00 -0.370690D+00
     30  0.375107D-03  0.372285D-03 -0.211966D+00 -0.188806D-02  0.489163D-05
     31  0.856386D-03  0.849945D-03 -0.133227D+00 -0.118671D-02  0.307454D-05
     32  0.118570D-02  0.117678D-02 -0.237036D-01 -0.211137D-03  0.000000D+00
     33  0.904048D-03  0.897248D-03 -0.231288D-02 -0.206018D-04  0.000000D+00
     34  0.103895D-03  0.103113D-03 -0.963194D-01 -0.196278D-02  0.794758D-05
     35  0.119080D+00  0.000000D+00  0.249546D-03  0.794758D-05  0.110479D-02
     36  0.000000D+00  0.119080D+00  0.216126D-02 -0.429658D+00  0.111316D-02
     37  0.452469D-01  0.000000D+00 -0.391978D-01  0.000000D+00  0.000000D+00
     38  0.542778D-01  0.000000D+00 -0.475897D-01  0.000000D+00  0.000000D+00
     39 -0.104679D-01  0.000000D+00  0.624178D-01  0.000000D+00  0.000000D+00
     40  0.251596D-01  0.000000D+00  0.108607D+00  0.000000D+00  0.000000D+00
     41  0.000000D+00  0.433736D-01  0.000000D+00  0.561628D-01  0.977230D-01
     42  0.268559D+00  0.000000D+00 -0.148555D+00  0.000000D+00  0.000000D+00
     43 -0.395925D-01  0.000000D+00  0.656210D-01  0.000000D+00  0.000000D+00
     44  0.105049D+00  0.000000D+00  0.114180D+00  0.000000D+00  0.000000D+00
     45  0.000000D+00  0.173940D+00  0.000000D+00  0.143994D+00  0.250548D+00
     46  0.443660D+00  0.000000D+00 -0.538437D-01  0.000000D+00  0.000000D+00
     47 -0.999265D-01  0.000000D+00 -0.123669D-01  0.000000D+00  0.000000D+00
     48  0.349767D+00  0.000000D+00 -0.215183D-01  0.000000D+00  0.000000D+00
     49  0.000000D+00  0.523639D+00  0.000000D+00  0.951065D-01  0.165485D+00
     50  0.402541D+00  0.000000D+00 -0.538914D-02  0.000000D+00  0.000000D+00
     51 -0.107513D+00  0.000000D+00 -0.732924D-02  0.000000D+00  0.000000D+00
     52  0.679117D+00  0.000000D+00 -0.127528D-01  0.000000D+00  0.000000D+00
     53  0.000000D+00  0.866188D+00  0.000000D+00  0.173546D-01  0.301970D-01
     54  0.127528D-01  0.000000D+00  0.132999D+00  0.000000D+00  0.000000D+00
     55  0.000000D+00 -0.173546D-01  0.000000D+00 -0.250641D-02 -0.227661D+00
     56  0.000000D+00 -0.301970D-01  0.000000D+00 -0.227661D+00 -0.267796D+00
     57  0.261150D-01  0.000000D+00  0.406811D-02  0.000000D+00  0.000000D+00
     58 -0.103486D-01  0.000000D+00 -0.698219D-02  0.000000D+00  0.000000D+00
     59  0.173099D+00  0.225539D-03 -0.611594D-02  0.188943D-05  0.274748D-04
     60  0.412823D+00  0.537889D-03 -0.412007D-01  0.127284D-04  0.185087D-03
     61  0.627620D+00  0.817758D-03 -0.325974D-01  0.100705D-04  0.146438D-03
     62  0.544765D+00  0.709803D-03 -0.604325D-02  0.186698D-05  0.271483D-04
     63 -0.657470D-02 -0.856651D-05  0.262328D-02  0.184486D-04 -0.144461D-04
     64 -0.226487D-01 -0.124568D-03  0.381459D-01 -0.144461D-04 -0.190623D-03
     65 -0.124568D-03  0.729559D-01  0.833769D-04  0.102613D-02  0.149213D-01
     66  0.969866D-01  0.226244D-03 -0.620123D-02  0.232207D-04  0.156439D-04
     67  0.231269D+00  0.539489D-03 -0.414507D-01  0.155214D-03  0.104568D-03
     68  0.351490D+00  0.819932D-03 -0.326304D-01  0.122186D-03  0.823170D-04
     69  0.304955D+00  0.711378D-03 -0.603628D-02  0.226031D-04  0.152278D-04
     70 -0.444729D-01 -0.103743D-03  0.320069D-01 -0.127265D-03 -0.990361D-04
     71  0.431152D-01 -0.698923D-04  0.215632D-01 -0.990361D-04 -0.469839D-04
     72 -0.698923D-04  0.730766D-01  0.844869D-04  0.125586D-01  0.846081D-02
     73  0.506530D-04  0.572903D-04  0.000000D+00  0.297558D-05  0.282110D-05
     74  0.608629D-04  0.688381D-04  0.000000D+00  0.405809D-05  0.384740D-05
     75  0.000000D+00  0.000000D+00 -0.957273D-03  0.177794D-02  0.000000D+00
     76  0.573499D-01  0.000000D+00 -0.907574D-03  0.000000D+00  0.177794D-02
     77  0.000000D+00  0.573499D-01  0.205299D-02  0.165804D-02  0.157196D-02
     78  0.294767D-03  0.333391D-03  0.000000D+00  0.196478D-05  0.186278D-05
     79  0.000000D+00  0.000000D+00 -0.770212D-03  0.143051D-02  0.000000D+00
     80  0.226365D+00  0.000000D+00 -0.730224D-03  0.000000D+00  0.143051D-02
     81  0.000000D+00  0.226365D+00  0.165182D-02  0.133404D-02  0.126478D-02
     82  0.466657D-03  0.527805D-03  0.000000D+00  0.000000D+00  0.000000D+00
     83  0.000000D+00  0.000000D+00 -0.184443D-03  0.342566D-03  0.000000D+00
     84  0.653054D+00  0.000000D+00 -0.174867D-03  0.000000D+00  0.342566D-03
     85  0.000000D+00  0.653054D+00  0.395561D-03  0.319464D-03  0.302878D-03
     86  0.391947D-03  0.443305D-03  0.000000D+00  0.000000D+00  0.000000D+00
     87  0.000000D+00  0.000000D+00 -0.202863D-04  0.376777D-04  0.000000D+00
     88  0.100000D+01  0.000000D+00 -0.192330D-04  0.000000D+00  0.376777D-04
     89  0.000000D+00  0.100000D+01  0.435065D-04  0.351368D-04  0.333126D-04
     90  0.192330D-04 -0.435065D-04  0.999991D+00 -0.151224D-05 -0.143373D-05
     91  0.000000D+00 -0.351368D-04 -0.151224D-05  0.999991D+00 -0.231582D-05
     92 -0.376777D-04 -0.333126D-04 -0.143373D-05 -0.231582D-05  0.999991D+00
     93  0.333126D-04  0.000000D+00  0.000000D+00 -0.261928D-05  0.248330D-05
     94 -0.351368D-04  0.000000D+00  0.267409D-05 -0.248329D-05 -0.261928D-05
     95 -0.124986D+00  0.894524D-03 -0.211681D+00  0.228937D-02 -0.390702D-02
     96 -0.285357D+00  0.204229D-02 -0.133243D+00  0.144105D-02 -0.245929D-02
     97 -0.395111D+00  0.282780D-02 -0.237275D-01  0.256617D-03 -0.437941D-03
     98 -0.301279D+00  0.215624D-02 -0.231609D-02  0.250489D-04 -0.427484D-04
     99  0.175165D-01 -0.125365D-03  0.489036D-01  0.765898D-03  0.321382D-02
    100  0.891521D-01  0.213947D-03 -0.834586D-01  0.321382D-02 -0.283560D-02
    101  0.213947D-03  0.119044D+00  0.518564D-02  0.216865D+00 -0.370100D+00
    102  0.889316D-03  0.896803D-03 -0.212866D+00 -0.457687D-02  0.281697D-04
    103  0.203017D-02  0.204726D-02 -0.133109D+00 -0.286200D-02  0.176150D-04
    104  0.281030D-02  0.283396D-02 -0.236096D-01 -0.507633D-03  0.312437D-05
    105  0.214216D-02  0.216020D-02 -0.230065D-02 -0.494666D-04  0.000000D+00
    106  0.245561D-03  0.247628D-03 -0.947139D-01 -0.471763D-02  0.455368D-04
    107  0.119200D+00 -0.152410D-05  0.582944D-03  0.455368D-04  0.268068D-02
    108 -0.152410D-05  0.119200D+00  0.523142D-02 -0.431907D+00  0.265830D-02
    109  0.452632D-01  0.430673D-04 -0.389599D-01  0.554971D-04  0.964958D-04
    110  0.542972D-01  0.516629D-04 -0.472759D-01  0.673429D-04  0.117093D-03
    111 -0.104904D-01 -0.998148D-05  0.623068D-01 -0.422843D-04 -0.234192D-03
    112  0.251032D-01 -0.173553D-04  0.108336D+00 -0.234192D-03 -0.314796D-03
    113 -0.173553D-04  0.433434D-01  0.263130D-03  0.558540D-01  0.971163D-01
    114  0.268669D+00  0.255634D-03 -0.148263D+00  0.211195D-03  0.367216D-03
    115 -0.396794D-01 -0.377543D-04  0.658149D-01  0.257281D-04 -0.368367D-03
    116  0.104833D+00 -0.656454D-04  0.114436D+00 -0.368367D-03 -0.402915D-03
    117 -0.656454D-04  0.173826D+00  0.520393D-03  0.143608D+00  0.249699D+00
    118  0.443890D+00  0.422354D-03 -0.538737D-01  0.767413D-04  0.133434D-03
    119 -0.100156D+00 -0.952971D-04 -0.122591D-01  0.965775D-04 -0.105617D-03
    120  0.349203D+00 -0.165698D-03 -0.213155D-01 -0.105617D-03 -0.263211D-04
    121 -0.165698D-03  0.523350D+00  0.252205D-03  0.950921D-01  0.165342D+00
    122  0.402827D+00  0.383283D-03 -0.539895D-02  0.769062D-05  0.133721D-04
    123 -0.107781D+00 -0.102552D-03 -0.733068D-02  0.248971D-04 -0.668778D-05
    124  0.678474D+00 -0.178312D-03 -0.127462D-01 -0.668778D-05  0.171150D-04
    125 -0.178312D-03  0.865878D+00  0.376572D-04  0.173739D-01  0.302090D-01
    126  0.127462D-01 -0.376572D-04  0.132779D+00 -0.381606D-03 -0.663519D-03
    127  0.668778D-05 -0.173739D-01 -0.381606D-03 -0.295801D-02 -0.227144D+00
    128 -0.171150D-04 -0.302090D-01 -0.663519D-03 -0.227144D+00 -0.267270D+00
    129  0.261196D-01 -0.389105D-05  0.444329D-02 -0.439829D-03 -0.131786D-04
    130 -0.103452D-01  0.668778D-05 -0.763696D-02  0.870613D-05  0.452416D-03
    131  0.172948D+00  0.541173D-03 -0.597101D-02  0.453088D-05  0.644055D-04
    132  0.412570D+00  0.129097D-02 -0.407705D-01  0.309372D-04  0.439765D-03
    133  0.627577D+00  0.196375D-02 -0.325391D-01  0.246911D-04  0.350979D-03
    134  0.545140D+00  0.170580D-02 -0.605510D-02  0.459468D-05  0.653124D-04
    135 -0.673412D-02 -0.210717D-04  0.264030D-02  0.432434D-04 -0.348772D-04
    136 -0.229763D-01 -0.299530D-03  0.375314D-01 -0.348772D-04 -0.450075D-03
    137 -0.299530D-03  0.727468D-01  0.196589D-03  0.102726D-02  0.146023D-01
    138  0.969495D-01  0.542307D-03 -0.601585D-02  0.540347D-04  0.364337D-04
    139  0.231255D+00  0.129357D-02 -0.409041D-01  0.367403D-03  0.247727D-03
    140  0.351712D+00  0.196738D-02 -0.325571D-01  0.292430D-03  0.197176D-03
    141  0.305440D+00  0.170854D-02 -0.605136D-02  0.543537D-04  0.366488D-04
    142 -0.445701D-01 -0.249312D-03  0.313526D-01 -0.298892D-03 -0.232609D-03
    143  0.427606D-01 -0.168102D-03  0.211400D-01 -0.232609D-03 -0.110751D-03
    144 -0.168102D-03  0.728118D-01  0.198079D-03  0.122185D-01  0.823854D-02
               21            22            23            24            25 
     21  0.100000D+01
     22  0.000000D+00  0.100000D+01
     23 -0.182154D+00 -0.317772D+00  0.100000D+01
     24 -0.114806D+00 -0.200282D+00  0.706377D+00  0.100000D+01
     25 -0.204603D-01 -0.356934D-01  0.373664D+00  0.788963D+00  0.100000D+01
     26 -0.199785D-02 -0.348528D-02  0.183766D+00  0.463181D+00  0.820866D+00
     27  0.363565D+00 -0.111155D+00  0.000000D+00  0.000000D+00  0.000000D+00
     28  0.113930D+00 -0.233147D+00  0.000000D+00  0.000000D+00  0.000000D+00
     29  0.760726D-03  0.132710D-02  0.000000D+00  0.000000D+00  0.000000D+00
     30  0.367135D+00 -0.190237D-02  0.600858D-03  0.299334D-01  0.116854D+00
     31  0.230756D+00 -0.119570D-02  0.299334D-01  0.135790D+00  0.302909D+00
     32  0.410558D-01 -0.212737D-03  0.116854D+00  0.302909D+00  0.532823D+00
     33  0.400602D-02 -0.207579D-04  0.119703D+00  0.311319D+00  0.592082D+00
     34  0.166830D+00 -0.197766D-02  0.100486D-01  0.865423D-01  0.109751D+00
     35 -0.265860D-02 -0.429658D+00 -0.581480D-02 -0.500791D-01 -0.635091D-01
     36 -0.153379D-02  0.794758D-05  0.000000D+00  0.000000D+00  0.000000D+00
     37 -0.341787D-01  0.586618D-01  0.244222D-05  0.250250D-02  0.250773D-01
     38 -0.414961D-01  0.712208D-01  0.000000D+00  0.256688D-02  0.296657D-01
     39  0.138862D+00 -0.442159D-01 -0.708705D-05 -0.999866D-03 -0.279403D-02
     40  0.461733D-01 -0.190810D+00 -0.106833D-03 -0.150725D-01 -0.421186D-01
     41  0.000000D+00  0.000000D+00  0.000000D+00  0.196760D-04  0.549826D-04
     42 -0.129534D+00  0.222322D+00  0.343658D-02  0.446749D-01  0.173536D+00
     43  0.273702D+00  0.279261D-01 -0.893599D-03 -0.658529D-02 -0.111354D-01
     44 -0.248560D-01 -0.243367D+00 -0.134705D-01 -0.992697D-01 -0.167860D+00
     45  0.000000D+00  0.000000D+00  0.175848D-04  0.129589D-03  0.219129D-03
     46 -0.469494D-01  0.805804D-01  0.589868D-01  0.180788D+00  0.376984D+00
     47  0.132202D+00  0.101817D+00 -0.105951D-01 -0.251047D-01 -0.313356D-01
     48 -0.100939D+00 -0.156755D-01 -0.159716D+00 -0.378440D+00 -0.472368D+00
     49  0.000000D+00  0.000000D+00  0.208497D-03  0.494024D-03  0.616641D-03
     50 -0.469909D-02  0.806517D-02  0.108034D+00  0.282141D+00  0.538936D+00
     51  0.197006D-01  0.261705D-01 -0.114957D-01 -0.274072D-01 -0.416384D-01
     52 -0.261150D-01  0.103486D-01 -0.173291D+00 -0.413149D+00 -0.627678D+00
     53  0.000000D+00  0.000000D+00  0.226219D-03  0.539334D-03  0.819386D-03
     54  0.406811D-02 -0.698219D-02 -0.630531D-02 -0.417529D-01 -0.326698D-01
     55  0.000000D+00  0.000000D+00 -0.188322D-05 -0.124704D-04 -0.975756D-05
     56  0.000000D+00  0.000000D+00 -0.283885D-04 -0.187985D-03 -0.147090D-03
     57 -0.261536D+00 -0.235308D+00 -0.108254D-01 -0.716846D-01 -0.560901D-01
     58 -0.235308D+00  0.523014D-02  0.144261D-02  0.955277D-02  0.747463D-02
     59 -0.104934D-01  0.145012D-02  0.000000D+00  0.135405D-03  0.158200D-01
     60 -0.706902D-01  0.976887D-02  0.135405D-03  0.437002D-02  0.583167D-01
     61 -0.559290D-01  0.772898D-02  0.158200D-01  0.583167D-01  0.180309D+00
     62 -0.103687D-01  0.143288D-02  0.572431D-01  0.157125D+00  0.337428D+00
     63  0.654353D-02  0.141591D-01  0.000000D+00  0.175314D-03  0.398130D-02
     64  0.653084D-01 -0.100611D-01 -0.126174D-05 -0.135818D-02 -0.308436D-01
     65  0.104536D-03 -0.144461D-04  0.000000D+00  0.000000D+00  0.000000D+00
     66  0.403462D-02  0.995432D-02  0.369066D-05  0.314675D-02  0.508081D-01
     67  0.269684D-01  0.665373D-01  0.314675D-02  0.324624D-01  0.152525D+00
     68  0.212298D-01  0.523788D-01  0.508081D-01  0.152525D+00  0.339329D+00
     69  0.392730D-02  0.968953D-02  0.880410D-01  0.234175D+00  0.468476D+00
     70 -0.129829D-01 -0.545563D-01 -0.137407D-03 -0.889708D-02 -0.375178D-01
     71 -0.256685D-01 -0.298961D-01 -0.238364D-03 -0.154340D-01 -0.650832D-01
     72 -0.401407D-04 -0.990361D-04  0.000000D+00  0.000000D+00  0.000000D+00
     73  0.000000D+00  0.263085D-05  0.133403D-01  0.776500D-01  0.804747D-01
     74  0.000000D+00  0.358794D-05  0.123335D-01  0.932012D-01  0.967018D-01
     75  0.165804D-02  0.157196D-02  0.581828D-01  0.899454D-01  0.332154D-01
     76 -0.157196D-02  0.165804D-02 -0.100720D+00 -0.155704D+00 -0.574989D-01
     77  0.000000D+00  0.000000D+00  0.176174D-03  0.272350D-03  0.100574D-03
     78  0.000000D+00  0.173716D-05  0.197747D+00  0.438646D+00  0.469078D+00
     79  0.133404D-02  0.126478D-02  0.200188D+00  0.248281D+00  0.115578D+00
     80 -0.126478D-02  0.133404D-02 -0.346543D+00 -0.429797D+00 -0.200077D+00
     81  0.000000D+00  0.000000D+00  0.606157D-03  0.751780D-03  0.349965D-03
[...]
 121        4PZ        76.83699
 122        5S          0.00000   0.19343
 123        5PX         0.00000   0.00000  41.86281
 124        5PY         0.00000   0.00000   0.00000  14.10878
 125        5PZ       -11.91392   0.00000   0.00000   0.00000  11.76767
 126        6D 0        0.00000   0.00000   0.00000   0.00000   0.00000
 127        6D+1        0.00000   0.00000   0.00000   0.00000   0.00000
 128        6D-1        0.00000   0.00000   0.00000   0.00000   0.00000
 129        6D+2        0.00000  -0.00000   0.00000   0.00000   0.00000
 130        6D-2        0.00000   0.00000   0.00000   0.00000   0.00000
 131 11  H  1S          0.00047   0.00053   0.06142   0.05730  -0.00019
 132        2S         -0.09572  -0.09110  -7.63453  -8.53373   0.04722
 133        3S          0.10748  -0.51770  16.66478  15.89462  -0.08133
 134        4S          0.03692  -0.82554   7.50213   7.84859  -0.03717
 135        5PX         0.03142  -0.07400   0.06108   0.00908  -0.00052
 136        5PY        -0.01191  -0.00690  -0.25579   0.85368   0.00106
 137        5PZ         4.53267   0.00029   0.00011   0.00017  -0.57859
 138 12  H  1S         -0.00907  -0.00466   0.32375  -0.00111   0.00098
 139        2S          0.27727  -0.02863 -33.63029   0.09693  -0.06081
 140        3S         -0.18077   1.94694  31.36468  -0.09672   0.08189
 141        4S         -0.01151   0.13415  11.82214  -0.03245   0.02749
 142        5PX         0.13849   0.00750   4.19894   0.00693  -0.00520
 143        5PY        -0.00033   0.00037   0.00359   1.34119   0.00001
 144        5PZ        11.73646   0.00015   0.00287  -0.00001  -1.54628
                         126       127       128       129       130
 126        6D 0     2171.47075
 127        6D+1        0.000001265.28349
 128        6D-1        0.00000   0.000002906.23931
 129        6D+2        0.00000   0.00000   0.000005311.03482
 130        6D-2        0.00000   0.00000   0.00000   0.000004824.48455
 131 11  H  1S          0.90503   0.01213   0.02256   2.60585   0.54210
 132        2S        -47.22489  -0.32937  -0.65696 -20.36283  -0.57651
 133        3S          0.33621   0.05254  -0.04118   1.26970   2.23051
 134        4S          0.09475   0.00271   0.00460  -0.31790   0.75919
 135        5PX        -3.49691   0.13079  -0.66190-251.20861 -39.01513
 136        5PY        -4.22622  -0.43072  -0.58958  22.20881 -23.84911
 137        5PZ        -0.33948 -12.43685 -64.02362   0.43132  -0.17681
 138 12  H  1S         -0.88663   0.08297  -0.00040  -1.35965   0.13603
 139        2S        -42.58000  -1.08299   0.00540  17.86971  -1.91115
 140        3S         -3.88658   0.05528  -0.00057 -22.08525   0.18704
 141        4S         -0.10796   0.00490  -0.00001   0.15398   0.00034
 142        5PX        -6.72695  -1.42854   0.00984  25.92273  -2.82357
 143        5PY         0.01154   0.00049  -0.10620  -1.74214-130.61040
 144        5PZ        -0.71864 -24.33075  -0.04953  -0.97438   0.00769
                         131       132       133       134       135
 131 11  H  1S          0.48818
 132        2S          0.26764 170.78848
 133        3S          0.98233 -27.37268 187.81791
 134        4S          0.11136 -23.29896  56.19023  48.53999
 135        5PX         0.00000   0.00000   0.00000   0.00000 114.19230
 136        5PY         0.00000   0.00000   0.00000   0.00000   0.00000
 137        5PZ         0.00000   0.00000   0.00000   0.00000   0.00000
 138 12  H  1S          0.00005   0.18801  -0.09595  -0.32222   0.00807
 139        2S          0.10598  -5.91830  56.30550  32.63859  -0.70327
 140        3S          0.00066  30.71850 -41.18164 -49.93626  -5.20459
 141        4S         -0.11875  10.96017 -40.34542 -25.83441   0.42681
 142        5PX         0.01645  -4.32834   8.71854   2.63847   0.56173
 143        5PY        -0.00551  -0.17162   1.86109   0.61125   2.10208
 144        5PZ         0.00000   0.00001  -0.00000  -0.00000  -0.00001
                         136       137       138       139       140
 136        5PY        50.61856
 137        5PZ         0.00000  26.30624
 138 12  H  1S          0.01999   0.00000   0.81801
 139        2S         -2.33074  -0.00001  -5.83248 392.02876
 140        3S          1.30260  -0.00001   1.72398-102.00993 180.30070
 141        4S          0.26923   0.00000   0.16107 -34.98093  36.24227
 142        5PX        -1.72482  -0.00000   0.00000   0.00000   0.00000
 143        5PY         0.11326   0.00000   0.00000   0.00000   0.00000
 144        5PZ        -0.00000   0.24607   0.00000   0.00000   0.00000
                         141       142       143       144
 141        4S         30.43697
 142        5PX         0.00000 207.98768
 143        5PY         0.00000   0.00000  38.08416
 144        5PZ         0.00000   0.00000   0.00000  47.46252
     Gross orbital populations:
                           1
   1 1   C  1S          1.16331
   2        2S         -0.19629
   3        2PX         0.75902
   4        2PY        -1.50035
   5        2PZ        -1.43868
   6        3S          0.82669
   7        3PX        -2.82054
   8        3PY        -1.90342
   9        3PZ        -1.21107
  10        4S          0.26172
  11        4PX        -0.94393
  12        4PY         0.17715
  13        4PZ         1.32430
  14        5S          0.00207
  15        5PX        -0.51736
  16        5PY         0.33902
  17        5PZ         0.01679
  18        6D 0        0.71879
  19        6D+1       -0.80743
  20        6D-1       -3.26030
  21        6D+2       -7.40764
  22        6D-2       -2.68569
  23 2   H  1S          0.60905
  24        2S         -0.40636
  25        3S         -3.12508
  26        4S         -1.15449
  27        5PX        -0.11995
  28        5PY        -2.62136
  29        5PZ        -0.05378
  30 3   H  1S          0.23952
  31        2S         -4.27874
  32        3S         -0.28695
  33        4S          0.83142
  34        5PX        -2.55284
  35        5PY         0.48681
  36        5PZ        -0.15224
  37 4   C  1S          1.21190
  38        2S          1.11762
  39        2PX         0.83088
  40        2PY         3.09112
  41        2PZ         2.75075
  42        3S          0.82719
  43        3PX         3.11860
  44        3PY         2.18960
  45        3PZ         1.53032
  46        4S          0.24020
  47        4PX         1.19501
  48        4PY        -0.07980
  49        4PZ        -0.65546
  50        5S          0.03846
  51        5PX         0.50320
  52        5PY        -0.27374
  53        5PZ         0.14824
  54        6D 0       -1.13501
  55        6D+1        0.39539
  56        6D-1        2.64666
  57        6D+2        7.64208
  58        6D-2        2.24316
  59 5   H  1S          1.07880
  60        2S          1.43901
  61        3S          4.24662
  62        4S          1.46293
  63        5PX        -0.11718
  64        5PY         2.97794
  65        5PZ         0.09050
  66 6   H  1S          1.29864
  67        2S          5.59035
  68        3S          0.11275
  69        4S         -1.00135
  70        5PX         1.11947
  71        5PY        -0.47376
  72        5PZ         0.25700
  73 7   C  1S          1.21538
  74        2S          1.57015
  75        2PX         1.19691
  76        2PY         3.49740
  77        2PZ         3.19863
  78        3S          0.82690
  79        3PX         2.67608
  80        3PY         1.80943
  81        3PZ         1.38538
  82        4S          0.26209
  83        4PX         1.09233
  84        4PY         0.00943
  85        4PZ        -0.78890
  86        5S          0.00207
  87        5PX         0.42708
  88        5PY        -0.32358
  89        5PZ         0.06730
  90        6D 0       -0.88026
  91        6D+1        0.76786
  92        6D-1        3.24331
  93        6D+2        7.34688
  94        6D-2        2.64611
  95 8   H  1S          0.93778
  96        2S          0.59781
  97        3S          3.21441
  98        4S          1.27027
  99        5PX         0.10332
 100        5PY         2.71737
 101        5PZ         0.04834
 102 9   H  1S          1.33346
 103        2S          4.66907
 104        3S          0.24884
 105        4S         -0.89112
 106        5PX         2.50643
 107        5PY        -0.48570
 108        5PZ         0.16121
 109 10  C  1S          1.16745
 110        2S          0.24899
 111        2PX         1.10186
 112        2PY        -1.21724
 113        2PZ        -0.87276
 114        3S          0.82693
 115        3PX        -3.25931
 116        3PY        -2.21834
 117        3PZ        -1.39916
 118        4S          0.23980
 119        4PX        -1.04053
 120        4PY         0.26984
 121        4PZ         1.14707
 122        5S          0.03843
 123        5PX        -0.56268
 124        5PY         0.30235
 125        5PZ        -0.06579
 126        6D 0        0.98328
 127        6D+1       -0.43199
 128        6D-1       -2.65072
 129        6D+2       -7.74506
 130        6D-2       -2.28527
 131 11  H  1S          0.47088
 132        2S         -1.20818
 133        3S         -4.16016
 134        4S         -1.34721
 135        5PX         0.10859
 136        5PY        -2.89932
 137        5PZ        -0.09277
 138 12  H  1S          0.29359
 139        2S         -5.13487
 140        3S         -0.18574
 141        4S          0.92319
 142        5PX        -1.22953
 143        5PY         0.47870
 144        5PZ        -0.24300
          Condensed to atoms (all electrons):
               1          2          3          4          5          6
     1  C ***********-538.013145-390.827488***********  29.595068  17.879807
     2  H -538.013145 544.600554 -18.305180  18.113001 -64.980895  10.525555
     3  H -390.827488 -18.305180 824.934904 -19.581504   8.404350  -8.133155
     4  C ***********  18.113001 -19.581504***********-469.606640-309.887510
     5  H   29.595068 -64.980895   8.404350-469.606640 638.872125 -40.479893
     6  H   17.879807  10.525555  -8.133155-309.887510 -40.479893 733.763593
     7  C *********** 530.451987 404.1838011279.732009 -23.862655 -11.860830
     8  H  531.657393-549.378656  21.324271 -19.130440  69.318586 -15.647479
     9  H  373.241091  24.141171-842.151294  19.281974 -14.961879  11.599963
    10  C 1308.276563 -19.747761  13.459670*********** 469.984837 292.695680
    11  H  -28.233945  61.442615  -4.954637 475.064786-624.092542  35.270350
    12  H  -16.535045  -5.721211   5.933244 324.879833  32.988161-708.822987
               7          8          9         10         11         12
     1  C *********** 531.657393 373.2410911308.276563 -28.233945 -16.535045
     2  H  530.451987-549.378656  24.141171 -19.747761  61.442615  -5.721211
     3  H  404.183801  21.324271-842.151294  13.459670  -4.954637   5.933244
     4  C 1279.732009 -19.130440  19.281974*********** 475.064786 324.879833
     5  H  -23.862655  69.318586 -14.961879 469.984837-624.092542  32.988161
     6  H  -11.860830 -15.647479  11.599963 292.695680  35.270350-708.822987
     7  C ***********-524.868203-388.089631***********  22.874919  10.836186
     8  H -524.868203 557.327809 -27.803840  21.154683 -65.343613  10.278792
     9  H -388.089631 -27.803840 863.167072 -12.817132  10.937765  -9.003080
    10  C ***********  21.154683 -12.817132***********-476.196626-309.249547
    11  H   22.874919 -65.343613  10.937765-476.196626 612.511507 -28.408763
    12  H   10.836186  10.278792  -9.003080-309.249547 -28.408763 687.726758
 Mulliken charges:
               1
     1  C   25.103840
     2  H    7.871966
     3  H    6.713017
     4  C  -23.576357
     5  H  -10.178623
     6  H   -5.903095
     7  C  -25.247953
     8  H   -7.889303
     9  H   -6.542179
    10  C   23.422845
    11  H   10.128182
    12  H    6.097661
 Sum of Mulliken charges =   0.00000
 Mulliken charges with hydrogens summed into heavy atoms:
               1
     1  C   25.257340
     4  C  -23.576357
     7  C  -25.247953
    10  C   23.566970
 N-N= 2.009942628562D+04 E-N=-1.172899261635D+03  KE= 3.476808365564D+02
 Orbital energies and kinetic energies (alpha):
                                 1                 2
   1         O               -46.841013         47.892886
   2         O               -46.828466         47.841944
   3         O                -4.698248         11.096881
   4         O                -4.610071         10.739316
   5         O                -3.838432          9.752579
   6         O                -3.774649         10.253035
   7         O                -3.123292          5.713603
   8         O                -3.098148          5.772517
   9         O                -3.018241          5.697509
  10         O                -2.978854          5.698863
  11         O                -1.089163          2.309713
  12         O                -1.086754          2.270415
  13         O                -1.038647          2.133997
  14         O                -1.031759          2.161694
  15         O                -0.242956          3.118986
  16         O                -0.144201          1.386481
  17         V                -0.090849          1.399378
  18         V                -0.016080          0.914978
  19         V                 0.016863          0.640490
  20         V                 0.026902          0.781565
  21         V                 0.045703          0.425350
  22         V                 0.058336          0.161217
  23         V                 0.078953          0.112867
  24         V                 0.082151          0.525853
  25         V                 0.103314          0.606696
  26         V                 0.112090          0.560473
  27         V                 0.134869          0.895269
  28         V                 0.169718          0.407226
  29         V                 0.186538          0.670479
  30         V                 0.188395          0.476232
  31         V                 0.195116          0.379842
  32         V                 0.197914          0.808358
  33         V                 0.232131          0.834252
  34         V                 0.241037          0.581405
  35         V                 0.267116          1.261769
  36         V                 0.276575          1.565005
  37         V                 0.290140          0.590191
  38         V                 0.334906          1.082169
  39         V                 0.351921          1.241869
  40         V                 0.376016          2.615111
  41         V                 0.390626          0.908114
  42         V                 0.456096          1.322822
  43         V                 0.552521          1.514791
  44         V                 0.587216          1.921143
  45         V                 0.698044          2.007486
  46         V                 0.714510          1.674797
  47         V                 0.765135          1.635560
  48         V                 0.819391          2.256676
  49         V                 0.838162          2.429815
  50         V                 0.860162          2.322606
  51         V                 0.870163          2.394364
  52         V                 0.886852          2.035027
  53         V                 0.936660          2.635371
  54         V                 0.952496          2.615295
  55         V                 0.974082          2.726779
  56         V                 0.993139          2.778169
  57         V                 1.096297          2.476462
  58         V                 1.134796          3.125875
  59         V                 1.147793          3.070035
  60         V                 1.214499          2.726546
  61         V                 1.259916          2.636681
  62         V                 1.270556          2.726718
  63         V                 1.336268          4.160380
  64         V                 1.393801          3.091075
  65         V                 1.421374          2.779319
  66         V                 1.492207          2.859846
  67         V                 1.529993          2.889521
  68         V                 1.665575          3.267028
  69         V                 1.732864          3.270056
  70         V                 1.752085          2.917050
  71         V                 1.803435          3.189307
  72         V                 1.869891          3.257595
  73         V                 1.934335          3.391100
  74         V                 1.977490          3.547986
  75         V                 2.021991          3.185906
  76         V                 2.034986          3.729669
  77         V                 2.107096          3.178224
  78         V                 2.253102          3.574749
  79         V                 2.265936          3.502811
  80         V                 2.288421          3.877768
  81         V                 2.323558          3.465676
  82         V                 2.385873          4.304945
  83         V                 2.456912          3.821222
  84         V                 2.506719          3.988349
  85         V                 2.565352          3.942493
  86         V                 2.629643          4.068697
  87         V                 2.661589          4.176813
  88         V                 2.750134          4.469096
  89         V                 2.758145          4.279121
  90         V                 2.834480          4.334210
  91         V                 2.882676          4.355592
  92         V                 3.036506          4.982895
  93         V                 3.079810          5.396661
  94         V                 3.285912          5.449456
  95         V                 3.303677          5.728936
  96         V                 3.591350          6.100735
  97         V                 4.296074         16.594368
  98         V                 4.393783         16.247186
  99         V                 5.242960         13.294701
 100         V                 5.343345         14.593020
 101         V                 5.773112         15.551333
 102         V                 5.827430         15.523755
 103         V                 6.090369         14.228446
 104         V                 6.341393         15.308503
 105         V                 6.406694         17.939433
 106         V                 6.869325         15.889771
 107         V                13.049222         17.289365
 108         V                13.244012         17.509724
 109         V                13.422180         17.736522
 110         V                13.736548         18.116427
 111         V               147.717987        241.066964
 112         V               148.719983        242.283610
 Total kinetic energy from orbitals= 3.476808365568D+02

 This type of calculation cannot be archived.


          EVOLUTION
 IN THE BEGINNING GOD MADE MAN.
 HE WORKED THE DIRT WITH HIS HANDS.
 THEN GOD DECIDED TO GIVE MAN SCIENCE,
 MAN SHOULD BE USEFUL (LIKE AN APPLIANCE.)
 BUT SOON MAN'S KNOWLEDGE GREW TOO GREAT,
 TO THE HEADING SCIENCE HE COULDN'T RELATE
 SO GOD SAID "LETS HAVE DIFFERENT FIELDS,
 WE'LL DIVIDE THEM UP, SEE WHAT IT YIELDS."
 ENTER PHYSICS, CHEMISTRY, BIO
 THEY SPRANG UP AROUND THE NILE.
 BUT CHEMISTRY SURPASSED THE REST
 FAR AND AWAY IT WAS THE BEST.
 EXPERIMENT WAS GOD'S DECREE
 EXPERIMENT DID CHEMISTS WITH LOTS OF GLEE
 BUT SOON THEIR TESTS BEGAN TO BOG,
 THEY FOUND THEMSELVES DEEP IN A FOG.
 "GIVE US SOME HELP" THEY CRIED TO GOD.
 GOD LOOKED AROUND, THEN GAVE THE NOD.
 ENTER EINSTEIN, HEISENBERG, BOHR,
 REACTION PATHS WERE CLEAR ONCE MORE.
 WITH THEORISTS GOD SEND DIRECTION
 AND THEN HE STOPPED, HE'D MADE PERFECTION.
          -- THOMAS A. HOLME, 1981
 Job cpu time:       0 days  0 hours  0 minutes 35.8 seconds.
 Elapsed time:       0 days  0 hours  0 minutes  1.7 seconds.
 File lengths (MBytes):  RWF=    272 Int=      0 D2E=      0 Chk=     32 Scr=     32
 Normal termination of Gaussian 16 at Sat Jan 14 14:16:23 2023.
