6
MD Step 0
C  -0.33763715 -0.58748864 0.00000000
H  0.19552659 -1.51519357 0.00000000
H  -1.40763715 -0.58748864 0.00000000
C  0.33763715 0.58748865 0.00000000
H  -0.19552659 1.51519357 0.00000000
H  1.40763715 0.58748865 0.00000000
6
MD Step 1
C  -0.33800528 -0.58783598 -0.00039397
H  0.19788698 -1.51298580 0.00234631
H  -1.40542288 -0.58520982 0.00234895
C  0.33721658 0.58704715 -0.00039424
H  -0.19318307 1.51768702 0.00234720
H  1.41011718 0.58990826 0.00234983
6
MD Step 2
C  -0.33831307 -0.58808251 -0.00078378
H  0.20024584 -1.51111150 0.00466782
H  -1.40355343 -0.58310476 0.00467318
C  0.33675268 0.58651801 -0.00078428
H  -0.19088065 1.52042337 0.00466947
H  1.41278191 0.59243554 0.00467464
6
MD Step 3
C  -0.33855884 -0.58822922 -0.00117117
H  0.20261229 -1.50957044 0.00697480
H  -1.40206220 -0.58116996 0.00698320
C  0.33624872 0.58590346 -0.00117179
H  -0.18860171 1.52338315 0.00697674
H  1.41557910 0.59507108 0.00698407
6
MD Step 4
C  -0.33873683 -0.58827332 -0.00155300
H  0.20496311 -1.50838422 0.00924845
H  -1.40100208 -0.57943001 0.00926065
C  0.33571315 0.58521159 -0.00155350
H  -0.18635558 1.52651241 0.00924966
H  1.41842480 0.59778543 0.00925838
6
MD Step 5
C  -0.33884796 -0.58821895 -0.00193194
H  0.20730640 -1.50753249 0.01150454
H  -1.40038007 -0.57787388 0.01152186
C  0.33514874 0.58444554 -0.00193191
H  -0.18411537 1.52978750 0.01150327
H  1.42126914 0.60058298 0.01151209
6
MD Step 6
C  -0.33888894 -0.58806616 -0.00230547
H  0.20961626 -1.50701883 0.01372789
H  -1.40022247 -0.57652047 0.01375229
C  0.33456351 0.58361439 -0.00230430
H  -0.18188392 1.53315025 0.01372148
H  1.42403200 0.60343640 0.01372857
6
MD Step 7
C  -0.33885988 -0.58781843 -0.00267347
H  0.21187832 -1.50682585 0.01591756
H  -1.40052875 -0.57537334 0.01595174
C  0.33396307 0.58272552 -0.00267034
H  -0.17964910 1.53655445 0.01590241
H  1.42665004 0.60633208 0.01590531
6
MD Step 8
C  -0.33876199 -0.58748024 -0.00303580
H  0.21407575 -1.50693006 0.01807256
H  -1.40128588 -0.57443502 0.01811992
C  0.33335290 0.58178679 -0.00302966
H  -0.17739866 1.53995249 0.01804401
H  1.42906368 0.60925590 0.01803970
6
MD Step 9
C  -0.33859652 -0.58705597 -0.00339132
H  0.21618397 -1.50730842 0.02018605
H  -1.40247452 -0.57371273 0.02025066
C  0.33273925 0.58080749 -0.00338094
H  -0.17512645 1.54329070 0.02013840
H  1.43121243 0.61218760 0.02012332
6
MD Step 10
C  -0.33836490 -0.58654997 -0.00373801
H  0.21817181 -1.50793854 0.02224595
H  -1.40406910 -0.57321778 0.02233248
C  0.33212901 0.57979805 -0.00372198
H  -0.17283233 1.54651096 0.02217248
H  1.43303658 0.61510149 0.02214255
6
MD Step 11
C  -0.33807280 -0.58597057 -0.00407712
H  0.22002677 -1.50877472 0.02425968
H  -1.40601397 -0.57294074 0.02437316
C  0.33152549 0.57876578 -0.00405387
H  -0.17049786 1.54957652 0.02415272
H  1.43450292 0.61799144 0.02410357
6
MD Step 12
C  -0.33772551 -0.58532547 -0.00440863
H  0.22172858 -1.50977607 0.02622719
H  -1.40825213 -0.57287847 0.02637284
C  0.33093290 0.57771932 -0.00437646
H  -0.16811366 1.55244579 0.02607817
H  1.43557812 0.62084387 0.02600520
6
MD Step 13
C  -0.33732986 -0.58462361 -0.00473327
H  0.22326199 -1.51089526 0.02815306
H  -1.41071484 -0.57302195 0.02833607
C  0.33035430 0.57666643 -0.00469043
H  -0.16566757 1.55508522 0.02795268
H  1.43624134 0.62365008 0.02785128
6
MD Step 14
C  -0.33688853 -0.58386957 -0.00504696
H  0.22458411 -1.51211278 0.03001338
H  -1.41335669 -0.57338940 0.03023893
C  0.32979718 0.57561952 -0.00499173
H  -0.16317808 1.55743683 0.02975181
H  1.43645131 0.62637314 0.02961719
6
MD Step 15
C  -0.33640960 -0.58307307 -0.00535054
H  0.22568266 -1.51337989 0.03181351
H  -1.41609934 -0.57396857 0.03208628
C  0.32926367 0.57458584 -0.00528122
H  -0.16063687 1.55947669 0.03148046
H  1.43620458 0.62900583 0.03130813
6
MD Step 16
C  -0.33589944 -0.58224191 -0.00564276
H  0.22653479 -1.51466128 0.03354641
H  -1.41887520 -0.57475840 0.03387053
C  0.32875755 0.57357433 -0.00555773
H  -0.15805060 1.56117368 0.03313134
H  1.43549394 0.63152906 0.03291710
6
MD Step 17
C  -0.33536383 -0.58138310 -0.00592148
H  0.22711488 -1.51592836 0.03520006
H  -1.42162170 -0.57576159 0.03557900
C  0.32828299 0.57259436 -0.00581933
H  -0.15543359 1.56249741 0.03469244
H  1.43431588 0.63391938 0.03443240
6
MD Step 18
C  -0.33480986 -0.58050481 -0.00618582
H  0.22740724 -1.51714768 0.03676979
H  -1.42427053 -0.57697238 0.03720613
C  0.32784244 0.57165352 -0.00606534
H  -0.15279566 1.56343086 0.03615923
H  1.43268297 0.63616143 0.03585006
6
MD Step 19
C  -0.33424760 -0.57961806 -0.00643794
H  0.22741690 -1.51827098 0.03826892
H  -1.42673862 -0.57836611 0.03876380
C  0.32743485 0.57075583 -0.00629806
H  -0.15013160 1.56398116 0.03754518
H  1.43063427 0.63825858 0.03718466
6
MD Step 20
C  -0.33368286 -0.57872947 -0.00667583
H  0.22712751 -1.51927825 0.03968624
H  -1.42897216 -0.57994156 0.04023974
C  0.32706283 0.56990875 -0.00651580
H  -0.14746343 1.56413727 0.03883961
H  1.42819250 0.64019054 0.03842623
6
MD Step 21
C  -0.33311871 -0.57784281 -0.00689492
H  0.22651118 -1.52016838 0.04099567
H  -1.43093789 -0.58171142 0.04160723
C  0.32673100 0.56912152 -0.00671450
H  -0.14483061 1.56387979 0.04001740
H  1.42537349 0.64192315 0.03955001
6
MD Step 22
C  -0.33255948 -0.57696301 -0.00709226
H  0.22555275 -1.52093538 0.04218057
H  -1.43259961 -0.58367816 0.04284887
C  0.32644188 0.56840106 -0.00689170
H  -0.14226593 1.56320525 0.04106294
H  1.42221031 0.64343268 0.04054097
6
MD Step 23
C  -0.33201858 -0.57610406 -0.00727472
H  0.22429748 -1.52152092 0.04328165
H  -1.43387119 -0.58578678 0.04400265
C  0.32618789 0.56774393 -0.00705425
H  -0.13974802 1.56217367 0.04201741
H  1.41880037 0.64475367 0.04144276
6
MD Step 24
C  -0.33149637 -0.57526676 -0.00743620
H  0.22271892 -1.52194695 0.04426403
H  -1.43475001 -0.58805665 0.04503359
C  0.32597369 0.56715845 -0.00719682
H  -0.13733262 1.56077601 0.04284757
H  1.41517213 0.64584641 0.04222222
6
MD Step 25
C  -0.33100416 -0.57446285 -0.00758257
H  0.22086313 -1.52217152 0.04516238
H  -1.43517294 -0.59043789 0.04597382
C  0.32579186 0.56664059 -0.00732528
H  -0.13500887 1.55907813 0.04358888
H  1.41142864 0.64674151 0.04291729
6
MD Step 26
C  -0.33054624 -0.57369697 -0.00771313
H  0.21874125 -1.52219632 0.04597294
H  -1.43512448 -0.59291854 0.04681840
C  0.32564111 0.56619192 -0.00743933
H  -0.13280576 1.55711291 0.04423897
H  1.40763870 0.64743233 0.04352686
6
MD Step 27
C  -0.33011920 -0.57296595 -0.00781984
H  0.21632575 -1.52207035 0.04664972
H  -1.43464072 -0.59552831 0.04752215
C  0.32552694 0.56582024 -0.00753195
H  -0.13079543 1.55487603 0.04475399
H  1.40383197 0.64787118 0.04400653
6
MD Step 28
C  -0.32972854 -0.57227558 -0.00790470
H  0.21364971 -1.52179015 0.04720473
H  -1.43370936 -0.59823952 0.04809571
C  0.32544489 0.56552295 -0.00760541
H  -0.12899390 1.55242509 0.04514727
H  1.40009770 0.64806917 0.04437119
6
MD Step 29
C  -0.32938018 -0.57163205 -0.00797096
H  0.21075601 -1.52135033 0.04765688
H  -1.43232054 -0.60101768 0.04855646
C  0.32538919 0.56529559 -0.00766305
H  -0.12741100 1.54982813 0.04543909
H  1.39653233 0.64804537 0.04464285
6
MD Step 30
C  -0.32907747 -0.57103897 -0.00802001
H  0.20767937 -1.52076114 0.04801430
H  -1.43048486 -0.60383935 0.04891146
C  0.32535586 0.56513488 -0.00770646
H  -0.12606747 1.54714489 0.04563899
H  1.39321975 0.64780888 0.04483235
6
MD Step 31
C  -0.32881247 -0.57048862 -0.00804217
H  0.20439397 -1.52010022 0.04822179
H  -1.42828531 -0.60674415 0.04910775
C  0.32535161 0.56504755 -0.00772722
H  -0.12504617 1.54437365 0.04569397
H  1.39017728 0.64730663 0.04488493
6
MD Step 32
C  -0.32859244 -0.56998862 -0.00804457
H  0.20097148 -1.51935359 0.04832022
H  -1.42571790 -0.60967691 0.04918427
C  0.32536716 0.56502384 -0.00773206
H  -0.12433404 1.54160886 0.04564587
H  1.38751300 0.64658202 0.04484447
6
MD Step 33
C  -0.32842067 -0.56954273 -0.00803106
H  0.19746616 -1.51852979 0.04833124
H  -1.42280628 -0.61260196 0.04916176
C  0.32539674 0.56505688 -0.00772463
H  -0.12393538 1.53892514 0.04551748
H  1.38530875 0.64566008 0.04473482
6
MD Step 34
C  -0.32829151 -0.56914581 -0.00799680
H  0.19388455 -1.51768932 0.04822732
H  -1.41963144 -0.61553325 0.04901432
C  0.32544323 0.56514778 -0.00770077
H  -0.12390093 1.53634593 0.04528263
H  1.38358799 0.64451727 0.04452844
6
MD Step 35
C  -0.32820405 -0.56879768 -0.00794278
H  0.19026680 -1.51686202 0.04801382
H  -1.41624876 -0.61845267 0.04874780
C  0.32550444 0.56529207 -0.00766145
H  -0.12424584 1.53392416 0.04494762
H  1.38239644 0.64316349 0.04423127
6
MD Step 36
C  -0.32816017 -0.56850116 -0.00787370
H  0.18667403 -1.51605831 0.04771691
H  -1.41269919 -0.62132217 0.04838808
C  0.32557521 0.56548183 -0.00761087
H  -0.12496100 1.53172899 0.04453919
H  1.38178867 0.64162990 0.04387032
6
MD Step 37
C  -0.32815491 -0.56825240 -0.00778769
H  0.18313015 -1.51532630 0.04732555
H  -1.40906634 -0.62414158 0.04792575
C  0.32565722 0.56571551 -0.00754726
H  -0.12607002 1.52978655 0.04404680
H  1.38176877 0.63991097 0.04343355
6
MD Step 38
C  -0.32818169 -0.56804621 -0.00768178
H  0.17965211 -1.51471997 0.04682250
H  -1.40544407 -0.62691781 0.04734562
C  0.32575379 0.56599288 -0.00746784
H  -0.12759800 1.52810985 0.04345338
H  1.38232087 0.63799548 0.04290187
6
MD Step 39
C  -0.32823708 -0.56788079 -0.00755685
H  0.17627697 -1.51427024 0.04621201
H  -1.40190685 -0.62963706 0.04665333
C  0.32586515 0.56631040 -0.00737317
H  -0.12954339 1.52672589 0.04276307
H  1.38343724 0.63589432 0.04227813
6
MD Step 40
C  -0.32831564 -0.56775256 -0.00741196
H  0.17302989 -1.51401572 0.04548827
H  -1.39853968 -0.63229633 0.04584493
C  0.32599373 0.56666660 -0.00726215
H  -0.13190926 1.52564337 0.04196965
H  1.38508702 0.63360902 0.04155428
6
MD Step 41
C  -0.32841288 -0.56765908 -0.00724743
H  0.16994041 -1.51398463 0.04465228
H  -1.39541904 -0.63488641 0.04492312
C  0.32614120 0.56705930 -0.00713472
H  -0.13468611 1.52486933 0.04107354
H  1.38723412 0.63114875 0.04072921
6
MD Step 42
C  -0.32852317 -0.56759697 -0.00706243
H  0.16702892 -1.51420715 0.04369882
H  -1.39262405 -0.63740493 0.04388461
C  0.32631060 0.56748777 -0.00698984
H  -0.13786498 1.52439593 0.04006868
H  1.38982520 0.62851734 0.03979509
6
MD Step 43
C  -0.32864536 -0.56756739 -0.00686075
H  0.16433827 -1.51468226 0.04264851
H  -1.39020209 -0.63982396 0.04275115
C  0.32650081 0.56794737 -0.00683052
H  -0.14140527 1.52423283 0.03897498
H  1.39282357 0.62574551 0.03877095
6
MD Step 44
C  -0.32877951 -0.56757276 -0.00664732
H  0.16191358 -1.51539720 0.04152790
H  -1.38818720 -0.64210992 0.04155018
C  0.32670986 0.56843282 -0.00666070
H  -0.14525483 1.52438760 0.03781849
H  1.39619050 0.62287099 0.03768222
6
MD Step 45
C  -0.32891428 -0.56760422 -0.00641467
H  0.15972710 -1.51640237 0.04029504
H  -1.38667391 -0.64429902 0.04024226
C  0.32694730 0.56895091 -0.00647350
H  -0.14942568 1.52479075 0.03655553
H  1.39981111 0.61986342 0.03648303
6
MD Step 46
C  -0.32905323 -0.56766755 -0.00617056
H  0.15783168 -1.51765625 0.03899254
H  -1.38566046 -0.64634208 0.03887032
C  0.32720837 0.56949434 -0.00627547
H  -0.15383983 1.52545169 0.03522853
H  1.40365199 0.61677857 0.03521581
6
MD Step 47
C  -0.32919349 -0.56776202 -0.00591541
H  0.15623502 -1.51915189 0.03762249
H  -1.38517451 -0.64823136 0.03743745
C  0.32749495 0.57006296 -0.00606675
H  -0.15845642 1.52633295 0.03383872
H  1.40763571 0.61363219 0.03388110
6
MD Step 48
C  -0.32933649 -0.56789090 -0.00565357
H  0.15496223 -1.52085418 0.03620867
H  -1.38520953 -0.64993736 0.03596782
C  0.32780502 0.57065312 -0.00585098
H  -0.16320938 1.52741426 0.03240970
H  1.41170566 0.61046266 0.03250235
6
MD Step 49
C  -0.32947815 -0.56805177 -0.00538296
H  0.15399828 -1.52275821 0.03473936
H  -1.38578261 -0.65146712 0.03445034
C  0.32814224 0.57126732 -0.00562615
H  -0.16806632 1.52863567 0.03092878
H  1.41576929 0.60727304 0.03106643
6
MD Step 50
C  -0.32961490 -0.56824235 -0.00510139
H  0.15332334 -1.52485430 0.03320227
H  -1.38689877 -0.65282867 0.03287305
C  0.32851000 0.57190821 -0.00539021
H  -0.17299394 1.52993428 0.02938283
H  1.41973549 0.60406625 0.02955999
6
MD Step 51
C  -0.32974137 -0.56845819 -0.00480400
H  0.15289911 -1.52714252 0.03157080
H  -1.38856489 -0.65404512 0.03120947
C  0.32891361 0.57258078 -0.00513885
H  -0.17797300 1.53123167 0.02774401
H  1.42350230 0.60083109 0.02795505
6
MD Step 52
C  -0.32986457 -0.56870655 -0.00449825
H  0.15275236 -1.52954943 0.02988653
H  -1.39070621 -0.65507039 0.02950047
C  0.32934644 0.57327814 -0.00487875
H  -0.18291491 1.53251916 0.02605481
H  1.42704270 0.59762545 0.02629475
6
MD Step 53
C  -0.32998807 -0.56899085 -0.00418738
H  0.15288323 -1.53202195 0.02816784
H  -1.39326095 -0.65588266 0.02776375
C  0.32980524 0.57399714 -0.00461288
H  -0.18775563 1.53376577 0.02433409
H  1.43031193 0.59448382 0.02459842
6
MD Step 54
C  -0.33011199 -0.56931065 -0.00387057
H  0.15326626 -1.53452781 0.02641056
H  -1.39618152 -0.65648395 0.02599448
C  0.33029010 0.57473817 -0.00434062
H  -0.19245579 1.53491972 0.02257754
H  1.43324863 0.59141761 0.02286220
6
MD Step 55
C  -0.33023481 -0.56966352 -0.00354498
H  0.15386235 -1.53704491 0.02459937
H  -1.39942451 -0.65688870 0.02417660
C  0.33080252 0.57550323 -0.00405958
H  -0.19698981 1.53592086 0.02076939
H  1.43578719 0.58842653 0.02107075
6
MD Step 56
C  -0.33035998 -0.57005141 -0.00321261
H  0.15465786 -1.53952320 0.02274602
H  -1.40291320 -0.65708465 0.02232097
C  0.33133891 0.57628924 -0.00377174
H  -0.20130733 1.53674059 0.01892186
H  1.43789772 0.58553715 0.01923690
6
MD Step 57
C  -0.33049081 -0.57047578 -0.00287520
H  0.15563617 -1.54191482 0.02086070
H  -1.40656874 -0.65706237 0.02043688
C  0.33189552 0.57709294 -0.00347886
H  -0.20536308 1.53735325 0.01704562
H  1.43955701 0.58277375 0.01737187
6
MD Step 58
C  -0.33062896 -0.57093610 -0.00253276
H  0.15677007 -1.54418310 0.01894399
H  -1.41032012 -0.65682348 0.01852411
C  0.33246975 0.57791225 -0.00318110
H  -0.20912546 1.53772844 0.01514143
H  1.44074056 0.58015007 0.01547697
6
MD Step 59
C  -0.33077312 -0.57142857 -0.00218227
H  0.15801486 -1.54631075 0.01697965
H  -1.41411334 -0.65638828 0.01656566
C  0.33306141 0.57874754 -0.00287595
H  -0.21258435 1.53782410 0.01319262
H  1.44141544 0.57766185 0.01353600
6
MD Step 60
C  -0.33092760 -0.57195462 -0.00182671
H  0.15935951 -1.54824938 0.01498472
H  -1.41786162 -0.65574438 0.01457788
C  0.33366429 0.57959292 -0.00256625
H  -0.21570016 1.53763803 0.01121689
H  1.44159181 0.57533750 0.01156712
6
MD Step 61
C  -0.33109109 -0.57250990 -0.00146347
H  0.16076190 -1.54998570 0.01294508
H  -1.42151258 -0.65491266 0.01254612
C  0.33427701 0.58044737 -0.00224978
H  -0.21846992 1.53714243 0.00919977
H  1.44125709 0.57317281 0.00955624
6
MD Step 62
C  -0.33126168 -0.57308925 -0.00108959
H  0.16217872 -1.55151234 0.01084465
H  -1.42501955 -0.65391747 0.01045388
C  0.33489818 0.58130974 -0.00192401
H  -0.22089766 1.53631388 0.00712461
H  1.44040580 0.57116036 0.00748696
6
MD Step 63
C  -0.33145086 -0.57370048 -0.00071631
H  0.16364801 -1.55274531 0.00874691
H  -1.42825978 -0.65270330 0.00836422
C  0.33551264 0.58216473 -0.00159927
H  -0.22291137 1.53521636 0.00505656
H  1.43912281 0.56937192 0.00542477
6
MD Step 64
C  -0.33165510 -0.57433650 -0.00033978
H  0.16512384 -1.55369145 0.00663062
H  -1.43120287 -0.65130250 0.00625578
C  0.33611923 0.58301117 -0.00127213
H  -0.22453051 1.53383402 0.00297355
H  1.43741484 0.56779230 0.00334768
6
MD Step 65
C  -0.33187647 -0.57499563 0.00003760
H  0.16659724 -1.55432714 0.00450950
H  -1.43378989 -0.64971316 0.00414218
C  0.33671068 0.58384147 -0.00094482
H  -0.22574407 1.53219278 0.00088932
H  1.43533220 0.56644021 0.00126945
6
MD Step 66
C  -0.33211303 -0.57567215 0.00041715
H  0.16804018 -1.55465505 0.00237641
H  -1.43599060 -0.64795584 0.00201636
C  0.33728307 0.58465127 -0.00061613
H  -0.22656734 1.53030353 -0.00120391
H  1.43291141 0.56531186 -0.00081777
6
MD Step 67
C  -0.33236169 -0.57635923 0.00080083
H  0.16942288 -1.55468695 0.00022035
H  -1.43778653 -0.64605619 -0.00013251
C  0.33783299 0.58543656 -0.00028419
H  -0.22702451 1.52817916 -0.00331800
H  1.43019195 0.56439818 -0.00292605
6
MD Step 68
C  -0.33262687 -0.57705738 0.00118251
H  0.17076415 -1.55439313 -0.00192368
H  -1.43912063 -0.64399409 -0.00226919
C  0.33834925 0.58618519 0.00004536
H  -0.22709787 1.52588491 -0.00541790
H  1.42726631 0.56373504 -0.00502060
6
MD Step 69
C  -0.33290668 -0.57776096 0.00156206
H  0.17205093 -1.55378353 -0.00405476
H  -1.43997893 -0.64178492 -0.00439244
C  0.33882641 0.58689061 0.00037251
H  -0.22680885 1.52345664 -0.00750354
H  1.42419719 0.56332259 -0.00710172
6
MD Step 70
C  -0.33319728 -0.57846248 0.00194088
H  0.17326369 -1.55288207 -0.00618083
H  -1.44036509 -0.63945388 -0.00650981
C  0.33926067 0.58754767 0.00069873
H  -0.22619210 1.52092590 -0.00958400
H  1.42104198 0.56315062 -0.00917896
6
MD Step 71
C  -0.33350206 -0.57916173 0.00231256
H  0.17443046 -1.55167220 -0.00826511
H  -1.44024619 -0.63698143 -0.00858405
C  0.33964091 0.58814354 0.00101813
H  -0.22524074 1.51837349 -0.01162292
H  1.41790576 0.56325267 -0.01121649
6
MD Step 72
C  -0.33381366 -0.57984803 0.00268123
H  0.17552086 -1.55020321 -0.01033141
H  -1.43965937 -0.63440995 -0.01063857
C  0.33996658 0.58867572 0.00133486
H  -0.22401257 1.51582217 -0.01364572
H  1.41483266 0.56360001 -0.01324022
6
MD Step 73
C  -0.33413145 -0.58051758 0.00304380
H  0.17654894 -1.54848629 -0.01236174
H  -1.43860806 -0.63173990 -0.01265495
C  0.34023052 0.58913473 0.00164617
H  -0.22252581 1.51333923 -0.01563544
H  1.41190815 0.56420476 -0.01523376
6
MD Step 74
C  -0.33445531 -0.58116736 0.00339632
H  0.17753619 -1.54653140 -0.01433313
H  -1.43709898 -0.62896686 -0.01460967
C  0.34042531 0.58951049 0.00194847
H  -0.22079570 1.51099832 -0.01757007
H  1.40921984 0.56508297 -0.01717573
6
MD Step 75
C  -0.33477668 -0.58178628 0.00374299
H  0.17845848 -1.54439983 -0.01627024
H  -1.43519516 -0.62613470 -0.01652721
C  0.34055220 0.58980133 0.00224610
H  -0.21888679 1.50882511 -0.01947596
H  1.40680218 0.56620179 -0.01909270
6
MD Step 76
C  -0.33508758 -0.58236420 0.00408710
H  0.17929901 -1.54215022 -0.01819240
H  -1.43296163 -0.62328183 -0.01842692
C  0.34061231 0.59000514 0.00254255
H  -0.21685881 1.50684961 -0.02137406
H  1.40468866 0.56753281 -0.02100568
6
MD Step 77
C  -0.33539101 -0.58290225 0.00442081
H  0.18010847 -1.53977707 -0.02005348
H  -1.43040391 -0.62038027 -0.02026208
C  0.34059653 0.59010927 0.00283029
H  -0.21470503 1.50516562 -0.02321895
H  1.40297129 0.56911263 -0.02286983
6
MD Step 78
C  -0.33567850 -0.58339064 0.00474748
H  0.18087277 -1.53734277 -0.02187332
H  -1.42760025 -0.61746830 -0.02205282
C  0.34050777 0.59011297 0.00311287
H  -0.21248398 1.50379673 -0.02503192
H  1.40166573 0.57091080 -0.02470607
6
MD Step 79
C  -0.33595321 -0.58383157 0.00505885
H  0.18164831 -1.53484080 -0.02360262
H  -1.42456454 -0.61451404 -0.02374925
C  0.34033823 0.59000462 0.00338205
H  -0.21018238 1.50283109 -0.02676412
H  1.40084661 0.57296558 -0.02646606
6
MD Step 80
C  -0.33620558 -0.58421515 0.00535913
H  0.18241781 -1.53233947 -0.02526632
H  -1.42139023 -0.61156003 -0.02537708
C  0.34009361 0.58978614 0.00364218
H  -0.20785872 1.50227554 -0.02844159
H  1.40050121 0.57523993 -0.02817489
6
MD Step 81
C  -0.33642951 -0.58453544 0.00564908
H  0.18318496 -1.52988568 -0.02686879
H  -1.41815339 -0.60862746 -0.02694133
C  0.33977714 0.58945708 0.00389403
H  -0.20554703 1.50215000 -0.03006925
H  1.40062504 0.57771673 -0.02983660
6
MD Step 82
C  -0.33662337 -0.58479145 0.00592518
H  0.18397931 -1.52749870 -0.02838852
H  -1.41490579 -0.60571081 -0.02842072
C  0.33938857 0.58901379 0.00413388
H  -0.20325095 1.50249183 -0.03162557
H  1.40122727 0.58040410 -0.03142919
6
MD Step 83
C  -0.33678026 -0.58497744 0.00618921
H  0.18479780 -1.52522776 -0.02983597
H  -1.41173201 -0.60283607 -0.02982690
C  0.33893395 0.58845930 0.00436342
H  -0.20100152 1.50329670 -0.03312093
H  1.40227238 0.58327719 -0.03296166
6
MD Step 84
C  -0.33689295 -0.58508784 0.00644354
H  0.18563280 -1.52312266 -0.03122521
H  -1.40871892 -0.60003210 -0.03117547
C  0.33842069 0.58779858 0.00458492
H  -0.19882830 1.50454673 -0.03456894
H  1.40370988 0.58630674 -0.03444589
6
MD Step 85
C  -0.33695736 -0.58512057 0.00668788
H  0.18649143 -1.52121317 -0.03255415
H  -1.40593382 -0.59731071 -0.03246546
C  0.33785416 0.58703521 0.00479779
H  -0.19673950 1.50623021 -0.03596652
H  1.40549555 0.58947876 -0.03587751
6
MD Step 86
C  -0.33696187 -0.58506642 0.00692959
H  0.18733126 -1.51957244 -0.03386837
H  -1.40348664 -0.59473078 -0.03374552
C  0.33724827 0.58618215 0.00500980
H  -0.19478622 1.50827765 -0.03735820
H  1.40752886 0.59273059 -0.03729796
6
MD Step 87
C  -0.33691210 -0.58493356 0.00716036
H  0.18820534 -1.51817042 -0.03511582
H  -1.40138152 -0.59225225 -0.03496322
C  0.33660092 0.58523717 0.00521144
H  -0.19291707 1.51070832 -0.03868997
H  1.40980127 0.59609653 -0.03865365
6
MD Step 88
C  -0.33680851 -0.58472521 0.00737751
H  0.18912952 -1.51700668 -0.03627922
H  -1.39964903 -0.58986926 -0.03610198
C  0.33591617 0.58420516 0.00539927
H  -0.19111135 1.51349774 -0.03994251
H  1.41226407 0.59957509 -0.03992471
6
MD Step 89
C  -0.33664700 -0.58444011 0.00758342
H  0.19008498 -1.51610764 -0.03737338
H  -1.39834250 -0.58760746 -0.03717857
C  0.33520373 0.58309756 0.00557553
H  -0.18937694 1.51658133 -0.04112847
H  1.41483256 0.60313164 -0.04112202
6
MD Step 90
C  -0.33643059 -0.58408414 0.00777463
H  0.19108724 -1.51545715 -0.03837615
H  -1.39746743 -0.58545487 -0.03817114
C  0.33446725 0.58192063 0.00573587
H  -0.18768190 1.51992481 -0.04222322
H  1.41745725 0.60676761 -0.04222097
6
MD Step 91
C  -0.33616071 -0.58366152 0.00795009
H  0.19213420 -1.51504876 -0.03928039
H  -1.39703318 -0.58341396 -0.03907319
C  0.33371299 0.58068408 0.00587853
H  -0.18600719 1.52347344 -0.04321711
H  1.42007318 0.61046856 -0.04321158
6
MD Step 92
C  -0.33583348 -0.58317106 0.00811447
H  0.19318402 -1.51490824 -0.04011632
H  -1.39707499 -0.58152398 -0.03991708
C  0.33295345 0.57940463 0.00600858
H  -0.18436973 1.52713114 -0.04413769
H  1.42257923 0.61418190 -0.04411955
6
MD Step 93
C  -0.33545017 -0.58261644 0.00826860
H  0.19421684 -1.51503185 -0.04088979
H  -1.39759143 -0.57979915 -0.04070952
C  0.33219693 0.57809548 0.00612672
H  -0.18276156 1.53082396 -0.04498820
H  1.42490185 0.61787891 -0.04494754
6
MD Step 94
C  -0.33501711 -0.58200622 0.00840953
H  0.19523520 -1.51538662 -0.04158212
H  -1.39854455 -0.57822862 -0.04143130
C  0.33144741 0.57676610 0.00622927
H  -0.18115056 1.53450171 -0.04574758
H  1.42699659 0.62155501 -0.04567525
6
MD Step 95
C  -0.33454402 -0.58135211 0.00853208
H  0.19625470 -1.51592073 -0.04215977
H  -1.39987074 -0.57678619 -0.04204728
C  0.33070613 0.57542372 0.00630982
H  -0.17949081 1.53812957 -0.04638040
H  1.42883919 0.62522022 -0.04626900
6
MD Step 96
C  -0.33403381 -0.58065873 0.00863795
H  0.19724442 -1.51662441 -0.04263467
H  -1.40154257 -0.57549027 -0.04256965
C  0.32998170 0.57408325 0.00637034
H  -0.17778292 1.54162924 -0.04689649
H  1.43036609 0.62883913 -0.04673842
6
MD Step 97
C  -0.33349376 -0.57993484 0.00872556
H  0.19819442 -1.51746332 -0.04299686
H  -1.40350272 -0.57433685 -0.04298730
C  0.32927873 0.57275581 0.00640881
H  -0.17600769 1.54494735 -0.04728436
H  1.43154241 0.63239835 -0.04707307
6
MD Step 98
C  -0.33292540 -0.57918317 0.00879897
H  0.19905660 -1.51843894 -0.04327444
H  -1.40572526 -0.57335887 -0.04332877
C  0.32860781 0.57145860 0.00643028
H  -0.17418587 1.54799697 -0.04757027
H  1.43230314 0.63584699 -0.04729865
6
MD Step 99
C  -0.33233526 -0.57841127 0.00885814
H  0.19980981 -1.51952423 -0.04346848
H  -1.40815189 -0.57256156 -0.04359414
C  0.32797453 0.57020388 0.00643492
H  -0.17231400 1.55072348 -0.04775417
H  1.43261866 0.63916180 -0.04741586
6
MD Step 100
C  -0.33173387 -0.57763056 0.00889976
H  0.20045557 -1.52066920 -0.04355775
H  -1.41069838 -0.57192723 -0.04376006
C  0.32738024 0.56899960 0.00641889
H  -0.17036958 1.55310060 -0.04781463
H  1.43249036 0.64234262 -0.04740507
6
MD Step 101
C  -0.33112977 -0.57685029 0.00892245
H  0.20098317 -1.52183691 -0.04353431
H  -1.41329199 -0.57145039 -0.04381705
C  0.32682796 0.56785521 0.00638084
H  -0.16834613 1.55509574 -0.04774359
H  1.43191551 0.64537717 -0.04725949
6
MD Step 102
C  -0.33053587 -0.57608406 0.00892098
H  0.20140962 -1.52296487 -0.04336371
H  -1.41583383 -0.57109856 -0.04372792
C  0.32631568 0.56677500 0.00631460
H  -0.16621432 1.55670981 -0.04750775
H  1.43092644 0.64828068 -0.04694821
6
MD Step 103
C  -0.32995425 -0.57533435 0.00889981
H  0.20168898 -1.52405661 -0.04307697
H  -1.41829184 -0.57090258 -0.04352345
C  0.32585180 0.56577306 0.00622602
H  -0.16401195 1.55788693 -0.04713771
H  1.42949976 0.65100487 -0.04650176
6
MD Step 104
C  -0.32938867 -0.57460527 0.00886170
H  0.20178879 -1.52510607 -0.04269374
H  -1.42062549 -0.57088095 -0.04322259
C  0.32544212 0.56486058 0.00611895
H  -0.16176860 1.55859069 -0.04665325
H  1.42763248 0.65351441 -0.04594032
6
MD Step 105
C  -0.32884562 -0.57390365 0.00880667
H  0.20169733 -1.52609092 -0.04221513
H  -1.42277958 -0.57103289 -0.04282524
C  0.32508864 0.56404450 0.00599389
H  -0.15949869 1.55881158 -0.04605650
H  1.42534924 0.65579415 -0.04526706
6
MD Step 106
C  -0.32833536 -0.57324007 0.00873105
H  0.20143052 -1.52696642 -0.04161701
H  -1.42467866 -0.57133186 -0.04230528
C  0.32478841 0.56332643 0.00584677
H  -0.15719489 1.55857369 -0.04532560
H  1.42270862 0.65785592 -0.04446189
6
MD Step 107
C  -0.32786320 -0.57262008 0.00863526
H  0.20098024 -1.52771754 -0.04090246
H  -1.42628007 -0.57177683 -0.04166474
C  0.32454229 0.56271114 0.00567848
H  -0.15487916 1.55788302 -0.04446527
H  1.41975102 0.65968662 -0.04353049
6
MD Step 108
C  -0.32742769 -0.57204221 0.00852535
H  0.20030354 -1.52837016 -0.04011296
H  -1.42758546 -0.57240310 -0.04094524
C  0.32435685 0.56220833 0.00549693
H  -0.15261328 1.55671668 -0.04351726
H  1.41648746 0.66123739 -0.04251448
6
MD Step 109
C  -0.32703540 -0.57151313 0.00839959
H  0.19941265 -1.52890141 -0.03923722
H  -1.42855097 -0.57319338 -0.04013434
C  0.32422906 0.56181767 0.00530049
H  -0.15041000 1.55511230 -0.04247280
H  1.41298880 0.66251384 -0.04140624
6
MD Step 110
C  -0.32669226 -0.57103886 0.00825631
H  0.19832303 -1.52929175 -0.03826381
H  -1.42913983 -0.57412929 -0.03921965
C  0.32415515 0.56153746 0.00508748
H  -0.14828414 1.55311603 -0.04132328
H  1.40933316 0.66352395 -0.04019821
6
MD Step 111
C  -0.32639804 -0.57061905 0.00809880
H  0.19701991 -1.52955841 -0.03721522
H  -1.42935616 -0.57522436 -0.03822360
C  0.32413635 0.56137011 0.00486239
H  -0.14628516 1.55074884 -0.04009263
H  1.40557167 0.66424453 -0.03891451
6
MD Step 112
C  -0.32615995 -0.57026094 0.00792295
H  0.19554124 -1.52967278 -0.03606359
H  -1.42916227 -0.57644229 -0.03711748
C  0.32416486 0.56130849 0.00462063
H  -0.14441515 1.54808844 -0.03875668
H  1.40180975 0.66470431 -0.03753195
6
MD Step 113
C  -0.32598132 -0.56996781 0.00772755
H  0.19390886 -1.52962897 -0.03480051
H  -1.42854778 -0.57776489 -0.03589258
C  0.32423561 0.56134739 0.00436109
H  -0.14269612 1.54520013 -0.03730996
H  1.39813708 0.66491490 -0.03604551
6
MD Step 114
C  -0.32586035 -0.56973765 0.00751543
H  0.19212098 -1.52945119 -0.03344445
H  -1.42753723 -0.57919946 -0.03456764
C  0.32434765 0.56148481 0.00408745
H  -0.14117678 1.54212846 -0.03577278
H  1.39461842 0.66486327 -0.03447537
6
MD Step 115
C  -0.32579258 -0.56956578 0.00729121
H  0.19016706 -1.52917848 -0.03202562
H  -1.42617474 -0.58076401 -0.03317345
C  0.32450170 0.56171959 0.00380545
H  -0.13991716 1.53891118 -0.03417654
H  1.39130699 0.66452668 -0.03285250
6
MD Step 116
C  -0.32578224 -0.56945645 0.00705073
H  0.18809634 -1.52879589 -0.03051613
H  -1.42445480 -0.58241938 -0.03168212
C  0.32468855 0.56204017 0.00351047
H  -0.13892028 1.53564649 -0.03249680
H  1.38831118 0.66394146 -0.03115252
6
MD Step 117
C  -0.32583149 -0.56941187 0.00679113
H  0.18595217 -1.52829950 -0.02889637
H  -1.42238778 -0.58413405 -0.03007436
C  0.32490035 0.56243556 0.00319929
H  -0.13819592 1.53242632 -0.03071694
H  1.38572701 0.66313719 -0.02935852
6
MD Step 118
C  -0.32593337 -0.56942502 0.00651737
H  0.18372903 -1.52773873 -0.02719827
H  -1.42004248 -0.58592641 -0.02838299
C  0.32513799 0.56290265 0.00287779
H  -0.13780191 1.52929218 -0.02886959
H  1.38359318 0.66209373 -0.02750224
6
MD Step 119
C  -0.32608643 -0.56949464 0.00622865
H  0.18146051 -1.52712779 -0.02541576
H  -1.41745707 -0.58777755 -0.02660263
C  0.32539624 0.56343176 0.00254507
H  -0.13775625 1.52632132 -0.02695062
H  1.38197712 0.66082948 -0.02557881
6
MD Step 120
C  -0.32628272 -0.56961298 0.00592971
H  0.17914588 -1.52651799 -0.02357878
H  -1.41471135 -0.58970362 -0.02476423
C  0.32567626 0.56401893 0.00220646
H  -0.13810843 1.52355229 -0.02499033
H  1.38090043 0.65932811 -0.02361748
6
MD Step 121
C  -0.32651610 -0.56977430 0.00562307
H  0.17679952 -1.52594726 -0.02170276
H  -1.41187563 -0.59170641 -0.02288415
C  0.32597716 0.56465785 0.00186473
H  -0.13888929 1.52103294 -0.02300472
H  1.38038736 0.65758842 -0.02163322
6
MD Step 122
C  -0.32678592 -0.56997861 0.00530559
H  0.17447205 -1.52541796 -0.01976689
H  -1.40898797 -0.59375212 -0.02094233
C  0.32629245 0.56533647 0.00151626
H  -0.14008898 1.51884017 -0.02097431
H  1.38048515 0.65564579 -0.01960577
6
MD Step 123
C  -0.32708861 -0.57022310 0.00497655
H  0.17219855 -1.52494762 -0.01776602
H  -1.40610458 -0.59582228 -0.01893442
C  0.32661877 0.56604571 0.00116010
H  -0.14170695 1.51702709 -0.01889441
H  1.38121155 0.65352067 -0.01752959
6
MD Step 124
C  -0.32742397 -0.57050856 0.00463163
H  0.17003593 -1.52453061 -0.01567242
H  -1.40326103 -0.59787637 -0.01683336
C  0.32694958 0.56677338 0.00079138
H  -0.14371384 1.51565914 -0.01673800
H  1.38259176 0.65125630 -0.01537705
6
MD Step 125
C  -0.32777992 -0.57082387 0.00427778
H  0.16796983 -1.52423020 -0.01352927
H  -1.40056384 -0.59994398 -0.01468324
C  0.32729078 0.56751974 0.00041748
H  -0.14614292 1.51472039 -0.01454704
H  1.38456551 0.64882585 -0.01318928
6