6
MD Step 0
C  -0.33763715 -0.58748864 0.00000000
H  0.19552659 -1.51519357 0.00000000
H  -1.40763715 -0.58748864 0.00000000
C  0.33763715 0.58748865 0.00000000
H  -0.19552659 1.51519357 0.00000000
H  1.40763715 0.58748865 0.00000000
6
MD Step 1
C  -0.33800541 -0.58783610 -0.00039458
H  0.19788359 -1.51299107 0.00235081
H  -1.40541898 -0.58520956 0.00235146
C  0.33721656 0.58704725 -0.00039475
H  -0.19318604 1.51769039 0.00235139
H  1.41012135 0.58991020 0.00235204
6
MD Step 2
C  -0.33831385 -0.58808330 -0.00078553
H  0.20024220 -1.51111880 0.00467998
H  -1.40354254 -0.58310108 0.00468137
C  0.33675212 0.58651768 -0.00078585
H  -0.19088338 1.52043321 0.00468101
H  1.41279331 0.59244260 0.00468221
6
MD Step 3
C  -0.33856400 -0.58823442 -0.00117780
H  0.20263071 -1.50955734 0.00701692
H  -1.40202227 -0.58114052 0.00701938
C  0.33624389 0.58589897 -0.00117815
H  -0.18858177 1.52342157 0.00701794
H  1.41561981 0.59510556 0.00701933
6
MD Step 4
C  -0.33874671 -0.58828335 -0.00156494
H  0.20500615 -1.50834820 0.00932309
H  -1.40093150 -0.57937231 0.00932740
C  0.33570367 0.58520256 -0.00156508
H  -0.18631023 1.52658151 0.00932306
H  1.41849649 0.59784979 0.00932387
6
MD Step 5
C  -0.33886519 -0.58823654 -0.00195197
H  0.20739058 -1.50745726 0.01162816
H  -1.40026409 -0.57777159 0.01163568
C  0.33513195 0.58442927 -0.00195147
H  -0.18402786 1.52990295 0.01162530
H  1.42138675 0.60069349 0.01162426
6
MD Step 6
C  -0.33891027 -0.58808822 -0.00233056
H  0.20972368 -1.50692287 0.01388249
H  -1.40008187 -0.57639183 0.01389527
C  0.33454262 0.58359404 -0.00232881
H  -0.18177188 1.53329284 0.01387412
H  1.42417503 0.60357468 0.01386936
6
MD Step 7
C  -0.33888703 -0.58784688 -0.00270562
H  0.21202092 -1.50669791 0.01611499
H  -1.40035507 -0.57520684 0.01613580
C  0.33393631 0.58269925 -0.00270177
H  -0.17950028 1.53673451 0.01609740
H  1.42682737 0.60650948 0.01608648
6
MD Step 8
C  -0.33878946 -0.58750979 -0.00306984
H  0.21422289 -1.50680171 0.01828205
H  -1.40111404 -0.57426181 0.01831449
C  0.33332569 0.58175998 -0.00306286
H  -0.17724333 1.54013746 0.01825053
H  1.42924094 0.60944102 0.01823033
6
MD Step 9
C  -0.33862780 -0.58709035 -0.00343109
H  0.21635851 -1.50715766 0.02043037
H  -1.40228585 -0.57351051 0.02047859
C  0.33270804 0.58077652 -0.00341968
H  -0.17494144 1.54350146 0.02037905
H  1.43140882 0.61240249 0.02034604
6
MD Step 10
C  -0.33840291 -0.58659234 -0.00378683
H  0.21839345 -1.50774661 0.02254472
H  -1.40384837 -0.57296744 0.02261348
C  0.33209080 0.57975986 -0.00376953
H  -0.17259760 1.54676508 0.02246670
H  1.43326786 0.61536499 0.02241685
6
MD Step 11
C  -0.33811597 -0.58601961 -0.00413381
H  0.22028860 -1.50854970 0.02460590
H  -1.40577322 -0.57264991 0.02470047
C  0.33148179 0.57872183 -0.00410902
H  -0.17021996 1.54986463 0.02449333
H  1.43475764 0.61829554 0.02442216
6
MD Step 12
C  -0.33777235 -0.58537995 -0.00447215
H  0.22202443 -1.50952544 0.02661459
H  -1.40800300 -0.57255413 0.02674048
C  0.33088514 0.57767095 -0.00443814
H  -0.16779841 1.55275903 0.02645870
H  1.43584519 0.62118116 0.02636153
6
MD Step 13
C  -0.33737385 -0.58467725 -0.00479750
H  0.22355558 -1.51065666 0.02854527
H  -1.41049904 -0.57270120 0.02870820
C  0.33030898 0.57662007 -0.00475255
H  -0.16535088 1.55538457 0.02833664
H  1.43647949 0.62398295 0.02820847
6
MD Step 14
C  -0.33692563 -0.58391852 -0.00510821
H  0.22485355 -1.51190916 0.03038849
H  -1.41320056 -0.57309486 0.03059413
C  0.32975832 0.57557913 -0.00505060
H  -0.16288149 1.55769797 0.03011715
H  1.43663433 0.62667847 0.02995291
6
MD Step 15
C  -0.33644007 -0.58311772 -0.00540934
H  0.22593093 -1.51320893 0.03217459
H  -1.41600283 -0.57369789 0.03242778
C  0.32923102 0.57455115 -0.00533732
H  -0.16035720 1.55970070 0.03182999
H  1.43633228 0.62928561 0.03162520
6
MD Step 16
C  -0.33592401 -0.58228304 -0.00570000
H  0.22676694 -1.51451815 0.03389868
H  -1.41883465 -0.57450696 0.03420363
C  0.32873042 0.57354466 -0.00561191
H  -0.15778264 1.56136429 0.03347006
H  1.43556936 0.63178758 0.03322059
6
MD Step 17
C  -0.33538396 -0.58142215 -0.00597869
H  0.22733969 -1.51580411 0.03555256
H  -1.42162837 -0.57552091 0.03591269
C  0.32825997 0.57256833 -0.00587304
H  -0.15516849 1.56266260 0.03502912
H  1.43434685 0.63416486 0.03473127
6
MD Step 18
C  -0.33482422 -0.58054037 -0.00624161
H  0.22761619 -1.51705035 0.03711425
H  -1.42433182 -0.57675110 0.03753236
C  0.32782496 0.57163259 -0.00611721
H  -0.15254188 1.56356178 0.03648552
H  1.43266101 0.63638497 0.03613591
6
MD Step 19
C  -0.33424773 -0.57964143 -0.00648349
H  0.22755809 -1.51825157 0.03855357
H  -1.42690400 -0.57821593 0.03903199
C  0.32743154 0.57074864 -0.00633961
H  -0.14994088 1.56402622 0.03780971
H  1.43050875 0.63840807 0.03740509
6
MD Step 20
C  -0.33366686 -0.57873849 -0.00670885
H  0.22718730 -1.51934884 0.03989776
H  -1.42925071 -0.57987571 0.04043694
C  0.32707572 0.56991742 -0.00654487
H  -0.14734949 1.56408409 0.03902923
H  1.42795304 0.64025261 0.03856785
6
MD Step 21
C  -0.33309213 -0.57784274 -0.00692065
H  0.22651962 -1.52029668 0.04116469
H  -1.43129283 -0.58169921 0.04176313
C  0.32675457 0.56914073 -0.00673611
H  -0.14476384 1.56376072 0.04016245
H  1.42505561 0.64192866 0.03964417
6
MD Step 22
C  -0.33252591 -0.57695705 -0.00711377
H  0.22552731 -1.52110113 0.04232512
H  -1.43300525 -0.58370117 0.04298078
C  0.32647260 0.56842746 -0.00690883
H  -0.14222933 1.56304093 0.04118138
H  1.42183869 0.64340027 0.04060642
6
MD Step 23
C  -0.33197515 -0.57608888 -0.00728832
H  0.22421647 -1.52174271 0.04338036
H  -1.43434003 -0.58586542 0.04408981
C  0.32622872 0.56778066 -0.00706350
H  -0.13976368 1.56194618 0.04208838
H  1.41836187 0.64466299 0.04145819
6
MD Step 24
C  -0.33145062 -0.57524948 -0.00744894
H  0.22262266 -1.52218099 0.04435792
H  -1.43523156 -0.58814932 0.04511532
C  0.32601702 0.56719820 -0.00720486
H  -0.13736106 1.56053007 0.04291179
H  1.41471697 0.64573953 0.04223010
6
MD Step 25
C  -0.33095118 -0.57443800 -0.00758850
H  0.22071691 -1.52244890 0.04521697
H  -1.43569142 -0.59057764 0.04601664
C  0.32584268 0.56668854 -0.00732665
H  -0.13508532 1.55878383 0.04361266
H  1.41093280 0.64658549 0.04288311
6
MD Step 26
C  -0.33048130 -0.57365927 -0.00770642
H  0.21851136 -1.52254687 0.04595466
H  -1.43570257 -0.59313724 0.04678993
C  0.32570416 0.56625301 -0.00742876
H  -0.13296451 1.55674186 0.04418962
H  1.40708023 0.64719543 0.04341696
6
MD Step 27
C  -0.33005092 -0.57292357 -0.00780853
H  0.21605813 -1.52244394 0.04660513
H  -1.43522060 -0.59577825 0.04746681
C  0.32559342 0.56588602 -0.00751698
H  -0.13099173 1.55448010 0.04467786
H  1.40326988 0.64760177 0.04386942
6
MD Step 28
C  -0.32965947 -0.57223056 -0.00789049
H  0.21335385 -1.52217303 0.04714359
H  -1.43426967 -0.59850923 0.04802258
C  0.32551213 0.56559103 -0.00758769
H  -0.12921929 1.55201993 0.04505450
H  1.39955495 0.64777921 0.04421783
6
MD Step 29
C  -0.32930780 -0.57158135 -0.00795022
H  0.21041120 -1.52175906 0.04755849
H  -1.43287055 -0.60132576 0.04844552
C  0.32545961 0.56536863 -0.00763942
H  -0.12768709 1.54939922 0.04530973
H  1.39600160 0.64771657 0.04445285
6
MD Step 30
C  -0.32900304 -0.57098339 -0.00799311
H  0.20728779 -1.52118945 0.04788084
H  -1.43101130 -0.60418156 0.04876462
C  0.32542804 0.56521171 -0.00767738
H  -0.12639311 1.54670059 0.04547574
H  1.39271640 0.64744593 0.04460883
6
MD Step 31
C  -0.32874070 -0.57043247 -0.00801314
H  0.20397875 -1.52052109 0.04807635
H  -1.42875456 -0.60709541 0.04894689
C  0.32542065 0.56512351 -0.00769646
H  -0.12539939 1.54394308 0.04552019
H  1.38973703 0.64693511 0.04465257
6
MD Step 32
C  -0.32852347 -0.56993166 -0.00801270
H  0.20052886 -1.51976726 0.04815870
H  -1.42612440 -0.61003906 0.04900526
C  0.32543282 0.56509885 -0.00769907
H  -0.12471956 1.54119378 0.04545801
H  1.38714332 0.64620045 0.04459991
6
MD Step 33
C  -0.32835108 -0.56948120 -0.00799192
H  0.19697182 -1.51895753 0.04812865
H  -1.42316637 -0.61299757 0.04894070
C  0.32546237 0.56513436 -0.00768558
H  -0.12437830 1.53850611 0.04529127
H  1.38499487 0.64524610 0.04445295
6
MD Step 34
C  -0.32822612 -0.56908429 -0.00795477
H  0.19336396 -1.51810298 0.04800848
H  -1.41991283 -0.61593528 0.04877488
C  0.32550392 0.56522288 -0.00765967
H  -0.12437668 1.53595274 0.04504318
H  1.38336337 0.64409825 0.04423559
6
MD Step 35
C  -0.32814641 -0.56873956 -0.00790103
H  0.18973871 -1.51724080 0.04779656
H  -1.41642764 -0.61884108 0.04850693
C  0.32555661 0.56536118 -0.00762118
H  -0.12473637 1.53357897 0.04471307
H  1.38228547 0.64275973 0.04394653
6
MD Step 36
C  -0.32810519 -0.56844122 -0.00782636
H  0.18610669 -1.51643279 0.04746811
H  -1.41280455 -0.62172775 0.04811410
C  0.32562401 0.56554997 -0.00756626
H  -0.12549848 1.53140214 0.04427690
H  1.38176218 0.64121065 0.04355981
6
MD Step 37
C  -0.32810217 -0.56819022 -0.00773395
H  0.18252056 -1.51569893 0.04704066
H  -1.40910026 -0.62456668 0.04761447
C  0.32570318 0.56578300 -0.00749767
H  -0.12665776 1.52947616 0.04375253
H  1.38182391 0.63947397 0.04309279
6
MD Step 38
C  -0.32813814 -0.56798883 -0.00762880
H  0.17904219 -1.51504886 0.04654172
H  -1.40536554 -0.62732009 0.04703582
C  0.32579006 0.56605260 -0.00741966
H  -0.12819419 1.52785800 0.04316760
H  1.38249739 0.63758312 0.04257278
6
MD Step 39
C  -0.32820434 -0.56783000 -0.00750627
H  0.17567812 -1.51454514 0.04594464
H  -1.40170827 -0.63000528 0.04635424
C  0.32589029 0.56636055 -0.00732790
H  -0.13013655 1.52654252 0.04249524
H  1.38374089 0.63551787 0.04197029
6
MD Step 40
C  -0.32830294 -0.56771787 -0.00737377
H  0.17250033 -1.51418057 0.04529012
H  -1.39816964 -0.63257283 0.04561072
C  0.32599874 0.56669771 -0.00722861
H  -0.13244071 1.52558368 0.04177594
H  1.38556689 0.63332602 0.04132556
6
MD Step 41
C  -0.32842351 -0.56764425 -0.00722563
H  0.16950529 -1.51401824 0.04454572
H  -1.39486373 -0.63504766 0.04477585
C  0.32612301 0.56706773 -0.00711643
H  -0.13513002 1.52495298 0.04097637
H  1.38790126 0.63098269 0.04060243
6
MD Step 42
C  -0.32856188 -0.56760733 -0.00706294
H  0.16672429 -1.51407926 0.04371674
H  -1.39186364 -0.63741747 0.04385670
C  0.32626473 0.56746837 -0.00699193
H  -0.13818425 1.52465099 0.04010100
H  1.39069657 0.62850159 0.03980382
6
MD Step 43
C  -0.32871373 -0.56760535 -0.00688663
H  0.16418424 -1.51438072 0.04280749
H  -1.38923829 -0.63967155 0.04285931
C  0.32642587 0.56789800 -0.00685551
H  -0.14157853 1.52466865 0.03915320
H  1.39389480 0.62589632 0.03893166
6
MD Step 44
C  -0.32887005 -0.56763188 -0.00669241
H  0.16187940 -1.51496309 0.04179355
H  -1.38707829 -0.64182878 0.04176170
C  0.32661338 0.56836029 -0.00670301
H  -0.14531167 1.52495972 0.03810704
H  1.39740107 0.62315249 0.03795795
6
MD Step 45
C  -0.32903252 -0.56769113 -0.00648696
H  0.15986095 -1.51579914 0.04071134
H  -1.38540325 -0.64384684 0.04060103
C  0.32682388 0.56884888 -0.00653996
H  -0.14931612 1.52553217 0.03699846
H  1.40117663 0.62031793 0.03691825
6
MD Step 46
C  -0.32919403 -0.56777844 -0.00626717
H  0.15812115 -1.51691000 0.03954302
H  -1.38427666 -0.64573869 0.03936118
C  0.32706301 0.56936700 -0.00636324
H  -0.15357486 1.52633254 0.03580820
H  1.40512377 0.61738678 0.03579199
6
MD Step 47
C  -0.32934941 -0.56789089 -0.00603132
H  0.15665566 -1.51830213 0.03827868
H  -1.38374145 -0.64750957 0.03803351
C  0.32733481 0.56991671 -0.00617109
H  -0.15805922 1.52730995 0.03452506
H  1.40915100 0.61436205 0.03456704
6
MD Step 48
C  -0.32950413 -0.56803577 -0.00578815
H  0.15551404 -1.51991650 0.03696648
H  -1.38376789 -0.64910575 0.03666616
C  0.32763323 0.57049026 -0.00597101
H  -0.16267855 1.52846831 0.03319760
H  1.41322610 0.61130619 0.03329226
6
MD Step 49
C  -0.32964544 -0.56820210 -0.00552656
H  0.15463047 -1.52179944 0.03554456
H  -1.38442398 -0.65058575 0.03519852
C  0.32797032 0.57109880 -0.00575297
H  -0.16745192 1.52969671 0.03176164
H  1.41720623 0.60817134 0.03190239
6
MD Step 50
C  -0.32977416 -0.56839180 -0.00524874
H  0.15400951 -1.52391604 0.03402528
H  -1.38568768 -0.65193267 0.03364286
C  0.32834517 0.57174070 -0.00551887
H  -0.17232164 1.53095799 0.03022928
H  1.42102777 0.60498515 0.03040976
6
MD Step 51
C  -0.32989156 -0.56860675 -0.00495656
H  0.15364963 -1.52622796 0.03241907
H  -1.38752443 -0.65313171 0.03200922
C  0.32875663 0.57241448 -0.00527036
H  -0.17723150 1.53221271 0.02861092
H  1.42463019 0.60177387 0.02882506
6
MD Step 52
C  -0.32999916 -0.56884859 -0.00465134
H  0.15354275 -1.52869509 0.03073364
H  -1.38988914 -0.65417111 0.03030470
C  0.32920348 0.57311893 -0.00500869
H  -0.18212836 1.53341932 0.02691430
H  1.42795604 0.59856131 0.02715649
6
MD Step 53
C  -0.33009920 -0.56911917 -0.00433449
H  0.15367797 -1.53127321 0.02897721
H  -1.39272439 -0.65503901 0.02853673
C  0.32968386 0.57385244 -0.00473522
H  -0.18695952 1.53453850 0.02514792
H  1.43095511 0.59537190 0.02541311
6
MD Step 54
C  -0.33019149 -0.56941747 -0.00400431
H  0.15402411 -1.53393300 0.02714087
H  -1.39598026 -0.65574175 0.02669552
C  0.33019827 0.57461603 -0.00444862
H  -0.19169162 1.53551593 0.02330266
H  1.43356697 0.59221263 0.02358633
6
MD Step 55
C  -0.33028327 -0.56974928 -0.00366641
H  0.15458865 -1.53660216 0.02525641
H  -1.39955724 -0.65624479 0.02481170
C  0.33073980 0.57540330 -0.00415411
H  -0.19625204 1.53634219 0.02141152
H  1.43578067 0.58913134 0.02170994
6
MD Step 56
C  -0.33037656 -0.57011486 -0.00332069
H  0.15534507 -1.53924030 0.02332373
H  -1.40338254 -0.65654714 0.02288415
C  0.33130642 0.57621294 -0.00385179
H  -0.20060360 1.53697934 0.01947475
H  1.43756081 0.58614318 0.01978484
6
MD Step 57
C  -0.33046802 -0.57050884 -0.00296136
H  0.15623362 -1.54183956 0.02131134
H  -1.40741179 -0.65668115 0.02088047
C  0.33190095 0.57704860 -0.00353671
H  -0.20474473 1.53736195 0.01746006
H  1.43884814 0.58323080 0.01777927
6
MD Step 58
C  -0.33056679 -0.57093771 -0.00259552
H  0.15726615 -1.54432039 0.01925947
H  -1.41152558 -0.65660705 0.01883981
C  0.33251360 0.57790111 -0.00321550
H  -0.20860444 1.53750282 0.01540920
H  1.43966565 0.58044864 0.01573573
6
MD Step 59
C  -0.33067950 -0.57140523 -0.00222784
H  0.15844025 -1.54661943 0.01719458
H  -1.41561887 -0.65630045 0.01678773
C  0.33313649 0.57876317 -0.00289254
H  -0.21212989 1.53740619 0.01334980
H  1.44003094 0.57783630 0.01368246
6
MD Step 60
C  -0.33079724 -0.57189967 -0.00184709
H  0.15966421 -1.54876648 0.01505466
H  -1.41967910 -0.65582901 0.01466164
C  0.33377629 0.57964227 -0.00255793
H  -0.21536316 1.53699179 0.01121805
H  1.43987959 0.57534276 0.01155598
6
MD Step 61
C  -0.33092992 -0.57242752 -0.00146184
H  0.16095821 -1.55068266 0.01288796
H  -1.42358477 -0.65514911 0.01250913
C  0.33442070 0.58052642 -0.00221955
H  -0.21823842 1.53629768 0.00906380
H  1.43926879 0.57302739 0.00940665
6
MD Step 62
C  -0.33107286 -0.57298079 -0.00106593
H  0.16226029 -1.55237679 0.01066052
H  -1.42730284 -0.65430261 0.01029587
C  0.33507091 0.58141731 -0.00187198
H  -0.22077861 1.53528438 0.00685209
H  1.43818039 0.57086525 0.00719971
6
MD Step 63
C  -0.33122984 -0.57355964 -0.00066236
H  0.16356130 -1.55381026 0.00838947
H  -1.43075406 -0.65328062 0.00803869
C  0.33571920 0.58230740 -0.00151802
H  -0.22295958 1.53397066 0.00460042
H  1.43665698 0.56888173 0.00495288
6
MD Step 64
C  -0.33140116 -0.57416073 -0.00025099
H  0.16483599 -1.55496702 0.00607441
H  -1.43388366 -0.65209352 0.00573710
C  0.33636054 0.58319172 -0.00115763
H  -0.22478004 1.53236375 0.00230814
H  1.43473156 0.56708324 0.00266559
6
MD Step 65
C  -0.33158899 -0.57478247 0.00016589
H  0.16607455 -1.55582238 0.00372849
H  -1.43663061 -0.65073922 0.00340422
C  0.33698739 0.58406261 -0.00079293
H  -0.22622998 1.53049076 -0.00001170
H  1.43245861 0.56548843 0.00035083
6
MD Step 66
C  -0.33179703 -0.57542473 0.00058397
H  0.16728093 -1.55634529 0.00137643
H  -1.43893037 -0.64920517 0.00106490
C  0.33759013 0.58491009 -0.00042789
H  -0.22729265 1.52839646 -0.00233440
H  1.42991131 0.56412622 -0.00196684
6
MD Step 67
C  -0.33203194 -0.57609034 0.00099529
H  0.16848215 -1.55648932 -0.00093643
H  -1.44070650 -0.64745906 -0.00123532
C  0.33815561 0.58572035 -0.00006981
H  -0.22793511 1.52615210 -0.00461429
H  1.42718956 0.56304482 -0.00424201
6
MD Step 68
C  -0.33228614 -0.57676811 0.00140597
H  0.16962715 -1.55629482 -0.00324475
H  -1.44197336 -0.64555112 -0.00353068
C  0.33868427 0.58649306 0.00028709
H  -0.22821029 1.52375289 -0.00688769
H  1.42431617 0.56221025 -0.00651148
6
MD Step 69
C  -0.33255810 -0.57745291 0.00181538
H  0.17070607 -1.55576883 -0.00554485
H  -1.44271597 -0.64349358 -0.00581706
C  0.33917021 0.58722118 0.00064238
H  -0.22813653 1.52123769 -0.00915184
H  1.42135644 0.56162572 -0.00877302
6
MD Step 70
C  -0.33284035 -0.57813382 0.00222846
H  0.17167951 -1.55495599 -0.00786505
H  -1.44296108 -0.64133196 -0.00812230
C  0.33961312 0.58790300 0.00100091
H  -0.22776863 1.51861727 -0.01143675
H  1.41834564 0.56126086 -0.01105722
6
MD Step 71
C  -0.33313490 -0.57880947 0.00264002
H  0.17256925 -1.55384704 -0.01017547
H  -1.44268559 -0.63905337 -0.01041602
C  0.34000321 0.58852686 0.00135799
H  -0.22710607 1.51596506 -0.01371333
H  1.41537945 0.56114262 -0.01333565
6
MD Step 72
C  -0.33344368 -0.57947853 0.00304456
H  0.17340153 -1.55243560 -0.01244441
H  -1.44187379 -0.63664359 -0.01266593
C  0.34033079 0.58908084 0.00170864
H  -0.22614962 1.51335921 -0.01595074
H  1.41255486 0.56129855 -0.01557821
6
MD Step 73
C  -0.33376192 -0.58013334 0.00344291
H  0.17416854 -1.55075673 -0.01467673
H  -1.44055626 -0.63412581 -0.01487640
C  0.34059289 0.58955942 0.00205393
H  -0.22493947 1.51084285 -0.01815543
H  1.40992915 0.56171824 -0.01779196
6
MD Step 74
C  -0.33408458 -0.58076623 0.00383577
H  0.17486578 -1.54884869 -0.01687644
H  -1.43877179 -0.63152267 -0.01705105
C  0.34078704 0.58995717 0.00239479
H  -0.22351678 1.50846081 -0.02033302
H  1.40755608 0.56239106 -0.01998303
6
MD Step 75
C  -0.33441037 -0.58137356 0.00421969
H  0.17551533 -1.54672901 -0.01902347
H  -1.43654346 -0.62883258 -0.01916936
C  0.34090748 0.59026495 0.00272816
H  -0.22189945 1.50628198 -0.02246476
H  1.40550782 0.56332958 -0.02213322
6
MD Step 76
C  -0.33473491 -0.58194902 0.00459403
H  0.17612517 -1.54443453 -0.02111395
H  -1.43391897 -0.62607025 -0.02122717
C  0.34095203 0.59047686 0.00305362
H  -0.22012193 1.50435751 -0.02454821
H  1.40383235 0.56452926 -0.02424037
6
MD Step 77
C  -0.33505040 -0.58248331 0.00496123
H  0.17668686 -1.54202293 -0.02316228
H  -1.43097212 -0.62326877 -0.02323903
C  0.34092248 0.59059071 0.00337385
H  -0.21823651 1.50271731 -0.02659941
H  1.40254990 0.56596634 -0.02632031
6
MD Step 78
C  -0.33535549 -0.58297401 0.00531711
H  0.17723292 -1.53951391 -0.02514358
H  -1.42774379 -0.62042125 -0.02517984
C  0.34081495 0.59059840 0.00368481
H  -0.21625443 1.50142692 -0.02859446
H  1.40171015 0.56765576 -0.02834924
6
MD Step 79
C  -0.33564129 -0.58341168 0.00566476
H  0.17775376 -1.53697168 -0.02707621
H  -1.42432435 -0.61756404 -0.02706864
C  0.34063381 0.59049998 0.00398978
H  -0.21422819 1.50050297 -0.03055300
H  1.40130775 0.56956835 -0.03034590
6
MD Step 80
C  -0.33590791 -0.58379633 0.00599838
H  0.17829419 -1.53440666 -0.02892507
H  -1.42075490 -0.61467904 -0.02887015
C  0.34037538 0.59028745 0.00428281
H  -0.21215335 1.50000948 -0.03244030
H  1.40137964 0.57172788 -0.03227543
6
MD Step 81
C  -0.33614488 -0.58411799 0.00632247
H  0.17883724 -1.53189110 -0.03071704
H  -1.41714259 -0.61181013 -0.03061263
C  0.34004732 0.58996438 0.00456853
H  -0.21008419 1.49994033 -0.03428399
H  1.40188799 0.57409513 -0.03416379
6
MD Step 82
C  -0.33634092 -0.58436638 0.00664235
H  0.17936051 -1.52950098 -0.03248430
H  -1.41360151 -0.60900585 -0.03233034
C  0.33965905 0.58953643 0.00485247
H  -0.20807604 1.50027558 -0.03611672
H  1.40277814 0.57662480 -0.03604120
6
MD Step 83
C  -0.33650366 -0.58455046 0.00694535
H  0.17995122 -1.52719895 -0.03414901
H  -1.41013437 -0.60620303 -0.03394440
C  0.33920220 0.58899185 0.00512095
H  -0.20606885 1.50109706 -0.03785947
H  1.40409613 0.57938126 -0.03782941
6
MD Step 84
C  -0.33662545 -0.58466448 0.00723381
H  0.18060369 -1.52503693 -0.03572497
H  -1.40683482 -0.60343019 -0.03547042
C  0.33868452 0.58833573 0.00537612
H  -0.20408991 1.50238452 -0.03952540
H  1.40578507 0.58233595 -0.03953953
6
MD Step 85
C  -0.33669766 -0.58470209 0.00751137
H  0.18130256 -1.52307133 -0.03723416
H  -1.40380138 -0.60072340 -0.03693279
C  0.33811573 0.58757587 0.00562156
H  -0.20216979 1.50409961 -0.04113546
H  1.40777077 0.58545108 -0.04118994
6
MD Step 86
C  -0.33671885 -0.58466440 0.00777536
H  0.18206962 -1.52131477 -0.03865943
H  -1.40108748 -0.59807862 -0.03831543
C  0.33749945 0.58671480 0.00585385
H  -0.20029507 1.50623366 -0.04267065
H  1.41001128 0.58872706 -0.04276061
6
MD Step 87
C  -0.33668291 -0.58454807 0.00802819
H  0.18289260 -1.51980672 -0.04001538
H  -1.39877091 -0.59552305 -0.03963535
C  0.33684497 0.58576168 0.00607518
H  -0.19847986 1.50873696 -0.04414361
H  1.41242709 0.59213142 -0.04426183
6
MD Step 88
C  -0.33659072 -0.58435686 0.00826644
H  0.18379316 -1.51854442 -0.04127999
H  -1.39688314 -0.59304641 -0.04087132
C  0.33615568 0.58472069 0.00628115
H  -0.19669774 1.51158816 -0.04552973
H  1.41497176 0.59566725 -0.04566850
6
MD Step 89
C  -0.33643900 -0.58409040 0.00849147
H  0.18475997 -1.51754972 -0.04246142
H  -1.39547508 -0.59066814 -0.04203350
C  0.33544019 0.58360226 0.00647273
H  -0.19494935 1.51472818 -0.04683451
H  1.41756629 0.59930636 -0.04698440
6
MD Step 90
C  -0.33622807 -0.58375186 0.00870216
H  0.18579426 -1.51682301 -0.04355226
H  -1.39456983 -0.58839153 -0.04311554
C  0.33470457 0.58241519 0.00664809
H  -0.19321731 1.51810729 -0.04804761
H  1.42014684 0.60303506 -0.04819860
6
MD Step 91
C  -0.33595388 -0.58333988 0.00890239
H  0.18686184 -1.51639140 -0.04457761
H  -1.39420988 -0.58625184 -0.04414504
C  0.33396034 0.58117462 0.00681131
H  -0.19151506 1.52163831 -0.04919114
H  1.42261817 0.60680621 -0.04933108
6
MD Step 92
C  -0.33562344 -0.58286391 0.00908688
H  0.18798463 -1.51621691 -0.04550340
H  -1.39436449 -0.58422462 -0.04508712
C  0.33320894 0.57988645 0.00695576
H  -0.18979606 1.52528996 -0.05022803
H  1.42494718 0.61063104 -0.05034604
6
MD Step 93
C  -0.33523827 -0.58232764 0.00925642
H  0.18914265 -1.51629556 -0.04633488
H  -1.39502881 -0.58232428 -0.04594778
C  0.33245830 0.57856376 0.00708196
H  -0.18805290 1.52898956 -0.05116061
H  1.42706524 0.61448079 -0.05124538
6
MD Step 94
C  -0.33480019 -0.58173477 0.00941234
H  0.19030907 -1.51662280 -0.04708173
H  -1.39618934 -0.58056912 -0.04673746
C  0.33171686 0.57722074 0.00719138
H  -0.18628307 1.53265952 -0.05199575
H  1.42890442 0.61832175 -0.05203546
6
MD Step 95
C  -0.33432028 -0.58109796 0.00954853
H  0.19150425 -1.51714028 -0.04770421
H  -1.39777097 -0.57892772 -0.04741411
C  0.33098450 0.57586353 0.00727643
H  -0.18443619 1.53627240 -0.05269150
H  1.43045214 0.62216926 -0.05267679
6
MD Step 96
C  -0.33380234 -0.58042229 0.00966621
H  0.19269844 -1.51783460 -0.04821127
H  -1.39973689 -0.57741663 -0.04798654
C  0.33026900 0.57450649 0.00733851
H  -0.18251194 1.53975423 -0.05325462
H  1.43165380 0.62598989 -0.05317628
6
MD Step 97
C  -0.33325060 -0.57971298 0.00976686
H  0.19385881 -1.51869129 -0.04861394
H  -1.40204341 -0.57605383 -0.04846538
C  0.32957812 0.57316420 0.00737951
H  -0.18051413 1.54303233 -0.05369412
H  1.43246014 0.62974826 -0.05354317
6
MD Step 98
C  -0.33267220 -0.57897794 0.00984989
H  0.19496559 -1.51967973 -0.04890942
H  -1.40462565 -0.57484290 -0.04884641
C  0.32891690 0.57184866 0.00739881
H  -0.17843542 1.54605220 -0.05400581
H  1.43284368 0.63342313 -0.05377445
6
MD Step 99
C  -0.33207100 -0.57822154 0.00991805
H  0.19597618 -1.52079024 -0.04911782
H  -1.40743589 -0.57380923 -0.04914927
C  0.32829378 0.57057523 0.00740016
H  -0.17629379 1.54874206 -0.05420834
H  1.43276291 0.63697113 -0.05388889
6
MD Step 100
C  -0.33145710 -0.57745431 0.00996882
H  0.19688373 -1.52197665 -0.04922358
H  -1.41038698 -0.57294211 -0.04935600
C  0.32771067 0.56935276 0.00738076
H  -0.17407503 1.55107183 -0.05428585
H  1.43222078 0.64038523 -0.05387264
6
MD Step 101
C  -0.33083880 -0.57668480 0.01000146
H  0.19767029 -1.52320434 -0.04922319
H  -1.41340186 -0.57224179 -0.04946115
C  0.32717096 0.56819138 0.00734012
H  -0.17177990 1.55300645 -0.05423472
H  1.43121755 0.64364753 -0.05372364
6
MD Step 102
C  -0.33022245 -0.57591951 0.01001703
H  0.19830707 -1.52445121 -0.04912546
H  -1.41641562 -0.57171953 -0.04947207
C  0.32667950 0.56710241 0.00728008
H  -0.16942427 1.55450627 -0.05406371
H  1.42975073 0.64672926 -0.05345167
6
MD Step 103
C  -0.32961894 -0.57516949 0.01001244
H  0.19879522 -1.52566798 -0.04891071
H  -1.41933677 -0.57135762 -0.04936649
C  0.32623573 0.56609151 0.00719733
H  -0.16699926 1.55556771 -0.05375439
H  1.42785530 0.64963141 -0.05304053
6
MD Step 104
C  -0.32903691 -0.57444351 0.00998646
H  0.19912590 -1.52681913 -0.04857153
H  -1.42208931 -0.57114934 -0.04913487
C  0.32584048 0.56516532 0.00709080
H  -0.16451107 1.55618331 -0.05330070
H  1.42556324 0.65234443 -0.05248599
6
MD Step 105
C  -0.32847771 -0.57374285 0.00994405
H  0.19925062 -1.52791337 -0.04814328
H  -1.42464407 -0.57112851 -0.04881220
C  0.32550107 0.56433631 0.00696738
H  -0.16201042 1.55631213 -0.05273807
H  1.42287362 0.65481839 -0.05182365
6
MD Step 106
C  -0.32795138 -0.57307769 0.00988209
H  0.19917899 -1.52890667 -0.04760520
H  -1.42692197 -0.57127307 -0.04837539
C  0.32521471 0.56360656 0.00682367
H  -0.15949622 1.55597709 -0.05204826
H  1.41984948 0.65706083 -0.05103749
6
MD Step 107
C  -0.32745985 -0.57244989 0.00980424
H  0.19887751 -1.52980388 -0.04698336
H  -1.42889640 -0.57160531 -0.04784992
C  0.32498569 0.56298449 0.00666489
H  -0.15701547 1.55516399 -0.05125828
H  1.41651657 0.65903524 -0.05015506
6
MD Step 108
C  -0.32701168 -0.57186813 0.00970770
H  0.19835958 -1.53056937 -0.04625945
H  -1.43050401 -0.57210310 -0.04721572
C  0.32481017 0.56246990 0.00648819
H  -0.15457447 1.55391090 -0.05035277
H  1.41295222 0.66075118 -0.04916281
6
MD Step 109
C  -0.32661693 -0.57134264 0.00958781
H  0.19765523 -1.53115787 -0.04540162
H  -1.43167606 -0.57273019 -0.04643907
C  0.32468135 0.56205908 0.00628824
H  -0.15216873 1.55227753 -0.04930388
H  1.40925394 0.66223378 -0.04803491
6
MD Step 110
C  -0.32627308 -0.57087077 0.00945060
H  0.19672560 -1.53159990 -0.04445143
H  -1.43242461 -0.57352049 -0.04556172
C  0.32460409 0.56175888 0.00607311
H  -0.14986673 1.55025987 -0.04815402
H  1.40545339 0.66343802 -0.04681380
6
MD Step 111
C  -0.32598450 -0.57045692 0.00929524
H  0.19558174 -1.53188359 -0.04340332
H  -1.43272392 -0.57446108 -0.04457738
C  0.32457478 0.56156715 0.00584229
H  -0.14769282 1.54790776 -0.04690068
H  1.40163326 0.66436764 -0.04549788
6
MD Step 112
C  -0.32575531 -0.57010530 0.00912049
H  0.19424137 -1.53199775 -0.04224834
H  -1.43255382 -0.57553490 -0.04347652
C  0.32458871 0.56147989 0.00559462
H  -0.14566935 1.54528142 -0.04553833
H  1.39788309 0.66503186 -0.04408246
6
MD Step 113
C  -0.32558178 -0.56981202 0.00893156
H  0.19268230 -1.53197815 -0.04102151
H  -1.43194632 -0.57676652 -0.04229461
C  0.32464812 0.56149897 0.00533688
H  -0.14386191 1.54240448 -0.04410335
H  1.39425149 0.66539873 -0.04260368
6
MD Step 114
C  -0.32546617 -0.56957942 0.00872748
H  0.19092688 -1.53182314 -0.03971591
H  -1.43090089 -0.57813889 -0.04102464
C  0.32474790 0.56161831 0.00506827
H  -0.14229569 1.53934712 -0.04259198
H  1.39082863 0.66547968 -0.04105804
6
MD Step 115
C  -0.32541377 -0.56941301 0.00850377
H  0.18902404 -1.53151138 -0.03830072
H  -1.42940229 -0.57961107 -0.03963555
C  0.32487871 0.56182690 0.00478365
H  -0.14097245 1.53620717 -0.04097770
H  1.38772648 0.66531156 -0.03941935
6
MD Step 116
C  -0.32541752 -0.56930566 0.00826668
H  0.18695481 -1.53109549 -0.03681691
H  -1.42751487 -0.58121116 -0.03816933
C  0.32504321 0.56212454 0.00449070
H  -0.13996253 1.53301509 -0.03930243
H  1.38498280 0.66486200 -0.03772858
6
MD Step 117
C  -0.32547801 -0.56925822 0.00801461
H  0.18475442 -1.53057994 -0.03525320
H  -1.42525987 -0.58291579 -0.03661517
C  0.32523534 0.56250177 0.00418769
H  -0.13928379 1.52985408 -0.03755777
H  1.38268086 0.66415174 -0.03597679
6
MD Step 118
C  -0.32559766 -0.56927353 0.00774360
H  0.18247601 -1.52995660 -0.03358244
H  -1.42265105 -0.58468577 -0.03494644
C  0.32544660 0.56294604 0.00387003
H  -0.13893625 1.52682260 -0.03571991
H  1.38091139 0.66321835 -0.03413959
6
MD Step 119
C  -0.32577131 -0.56934680 0.00745607
H  0.18013312 -1.52926144 -0.03181970
H  -1.41975180 -0.58652260 -0.03317931
C  0.32567590 0.56345136 0.00354056
H  -0.13895757 1.52397560 -0.03380518
H  1.37971324 0.66205874 -0.03223201
6
MD Step 120
C  -0.32599482 -0.56947448 0.00715286
H  0.17775137 -1.52852218 -0.02996946
H  -1.41662234 -0.58841731 -0.03131938
C  0.32592084 0.56400991 0.00320015
H  -0.13937099 1.52137446 -0.03181936
H  1.37912346 0.66068108 -0.03025851
6
MD Step 121
C  -0.32626581 -0.56965503 0.00683247
H  0.17537230 -1.52775349 -0.02802132
H  -1.41331464 -0.59034620 -0.02935734
C  0.32617706 0.56461151 0.00284700
H  -0.14018022 1.51908942 -0.02975342
H  1.37918011 0.65910890 -0.02820878
6
MD Step 122
C  -0.32658201 -0.56988717 0.00649284
H  0.17304215 -1.52696723 -0.02596092
H  -1.40988234 -0.59228172 -0.02727991
C  0.32644012 0.56524566 0.00247853
H  -0.14137934 1.51718706 -0.02759402
H  1.37991029 0.65737022 -0.02606824
6
MD Step 123
C  -0.32693576 -0.57016441 0.00613648
H  0.17077819 -1.52620498 -0.02380344
H  -1.40641301 -0.59422547 -0.02510361
C  0.32671115 0.56590719 0.00209728
H  -0.14298497 1.51569550 -0.02535615
H  1.38129620 0.65546409 -0.02385043
6
MD Step 124
C  -0.32731083 -0.57047169 0.00577372
H  0.16854788 -1.52555750 -0.02161408
H  -1.40304671 -0.59622843 -0.02289537
C  0.32700028 0.56659980 0.00171447
H  -0.14505592 1.51458305 -0.02310316
H  1.38325533 0.65334040 -0.02161694
6
MD Step 125
C  -0.32770218 -0.57080551 0.00540404
H  0.16638679 -1.52504529 -0.01938846
H  -1.39985468 -0.59827331 -0.02065186
C  0.32730633 0.56731644 0.00132914
H  -0.14757555 1.51387579 -0.02083036
H  1.38576037 0.65101868 -0.01936214
6