 Entering Gaussian System, Link 0=g16
 Initial command:
 /software/gaussian/g16-c01/avx2/g16/l1.exe "/gpfs/fs2/scratch/bweight/software/many_molecule_many_mode_NAMD/src/NAMD/TEST_NVT/TRAJ/traj-29/G16/GS_NEW/Gau-15302.inp" -scrdir="/gpfs/fs2/scratch/bweight/software/many_molecule_many_mode_NAMD/src/NAMD/TEST_NVT/TRAJ/traj-29/G16/GS_NEW/"
 Entering Link 1 = /software/gaussian/g16-c01/avx2/g16/l1.exe PID=     15303.
  
 Copyright (c) 1988-2019, Gaussian, Inc.  All Rights Reserved.
  
 This is part of the Gaussian(R) 16 program.  It is based on
 the Gaussian(R) 09 system (copyright 2009, Gaussian, Inc.),
 the Gaussian(R) 03 system (copyright 2003, Gaussian, Inc.),
 the Gaussian(R) 98 system (copyright 1998, Gaussian, Inc.),
 the Gaussian(R) 94 system (copyright 1995, Gaussian, Inc.),
 the Gaussian 92(TM) system (copyright 1992, Gaussian, Inc.),
 the Gaussian 90(TM) system (copyright 1990, Gaussian, Inc.),
 the Gaussian 88(TM) system (copyright 1988, Gaussian, Inc.),
 the Gaussian 86(TM) system (copyright 1986, Carnegie Mellon
 University), and the Gaussian 82(TM) system (copyright 1983,
 Carnegie Mellon University). Gaussian is a federally registered
 trademark of Gaussian, Inc.
  
 This software contains proprietary and confidential information,
 including trade secrets, belonging to Gaussian, Inc.
  
 This software is provided under written license and may be
 used, copied, transmitted, or stored only in accord with that
 written license.
  
 The following legend is applicable only to US Government
 contracts under FAR:
  
                    RESTRICTED RIGHTS LEGEND
  
 Use, reproduction and disclosure by the US Government is
 subject to restrictions as set forth in subparagraphs (a)
 and (c) of the Commercial Computer Software - Restricted
 Rights clause in FAR 52.227-19.
  
 Gaussian, Inc.
 340 Quinnipiac St., Bldg. 40, Wallingford CT 06492
  
  
 ---------------------------------------------------------------
 Warning -- This program may not be used in any manner that
 competes with the business of Gaussian, Inc. or will provide
 assistance to any competitor of Gaussian, Inc.  The licensee
 of this program is prohibited from giving any competitor of
 Gaussian, Inc. access to this program.  By using this program,
 the user acknowledges that Gaussian, Inc. is engaged in the
 business of creating and licensing software in the field of
 computational chemistry and represents and warrants to the
 licensee that it is not a competitor of Gaussian, Inc. and that
 it will not use this program in any manner prohibited above.
 ---------------------------------------------------------------
  

 Cite this work as:
 Gaussian 16, Revision C.01,
 M. J. Frisch, G. W. Trucks, H. B. Schlegel, G. E. Scuseria, 
 M. A. Robb, J. R. Cheeseman, G. Scalmani, V. Barone, 
 G. A. Petersson, H. Nakatsuji, X. Li, M. Caricato, A. V. Marenich, 
 J. Bloino, B. G. Janesko, R. Gomperts, B. Mennucci, H. P. Hratchian, 
 J. V. Ortiz, A. F. Izmaylov, J. L. Sonnenberg, D. Williams-Young, 
 F. Ding, F. Lipparini, F. Egidi, J. Goings, B. Peng, A. Petrone, 
 T. Henderson, D. Ranasinghe, V. G. Zakrzewski, J. Gao, N. Rega, 
 G. Zheng, W. Liang, M. Hada, M. Ehara, K. Toyota, R. Fukuda, 
 J. Hasegawa, M. Ishida, T. Nakajima, Y. Honda, O. Kitao, H. Nakai, 
 T. Vreven, K. Throssell, J. A. Montgomery, Jr., J. E. Peralta, 
 F. Ogliaro, M. J. Bearpark, J. J. Heyd, E. N. Brothers, K. N. Kudin, 
 V. N. Staroverov, T. A. Keith, R. Kobayashi, J. Normand, 
 K. Raghavachari, A. P. Rendell, J. C. Burant, S. S. Iyengar, 
 J. Tomasi, M. Cossi, J. M. Millam, M. Klene, C. Adamo, R. Cammi, 
 J. W. Ochterski, R. L. Martin, K. Morokuma, O. Farkas, 
 J. B. Foresman, and D. J. Fox, Gaussian, Inc., Wallingford CT, 2019.
 
 ******************************************
 Gaussian 16:  ES64L-G16RevC.01  3-Jul-2019
                11-Jan-2023 
 ******************************************
 %oldchk=../GS_OLD/geometry.chk
 %chk=geometry.chk
 %nprocshared=4
 Will use up to    4 processors via shared memory.
 %mem=5GB
 Copying data from "../GS_OLD/geometry.chk" to current chk file "geometry.chk"
 IOpt=  2 FromEx=T IUOpen= 4 IOptOp= 5 NList=   0 IFRang= 0 IUIn= 4 IUOut= 2.
 -------------------------------------------------------
 # WB97XD/6-311G SCF=XQC FORCE nosym pop=full guess=read
 -------------------------------------------------------
 1/10=7,30=1,38=1/1,3;
 2/12=2,15=1,17=6,18=5,40=1/2;
 3/5=4,6=6,11=2,25=1,30=1,71=1,74=-58,116=-2/1,2,3;
 4/5=1/1;
 5/5=2,8=3,13=1,38=6/2,8;
 6/7=3,28=1/1;
 7/29=1,30=1/1,2,3,16;
 1/10=7,30=1/3;
 99//99;
 -----------
 MD Step 999
 -----------
 Symbolic Z-matrix:
 Charge =  0 Multiplicity = 1
 C                    -0.3355   -0.58068   0.00774 
 H                     0.21151  -1.52949  -0.02996 
 H                    -1.42021  -0.59322  -0.03111 
 C                     0.33276   0.57671   0.00658 
 H                    -0.16435   1.56789  -0.03451 
 H                     1.44754   0.64396  -0.03317 
 

 GradGradGradGradGradGradGradGradGradGradGradGradGradGradGradGradGradGrad
 Berny optimization.
 Initialization pass.
 Trust Radius=3.00D-01 FncErr=1.00D-07 GrdErr=1.00D-07 EigMax=2.50D+02 EigMin=1.00D-04
 Number of steps in this run=      2 maximum allowed number of steps=      2.
 GradGradGradGradGradGradGradGradGradGradGradGradGradGradGradGradGradGrad

                          Input orientation:                          
 ---------------------------------------------------------------------
 Center     Atomic      Atomic             Coordinates (Angstroms)
 Number     Number       Type             X           Y           Z
 ---------------------------------------------------------------------
      1          6           0       -0.335502   -0.580681    0.007738
      2          1           0        0.211515   -1.529487   -0.029961
      3          1           0       -1.420214   -0.593218   -0.031114
      4          6           0        0.332761    0.576709    0.006576
      5          1           0       -0.164353    1.567886   -0.034511
      6          1           0        1.447543    0.643964   -0.033169
 ---------------------------------------------------------------------
                    Distance matrix (angstroms):
                    1          2          3          4          5
     1  C    0.000000
     2  H    1.095847   0.000000
     3  H    1.085480   1.881260   0.000000
     4  C    1.336461   2.109999   2.107859   0.000000
     5  H    2.155786   3.120098   2.499514   1.109613   0.000000
     6  H    2.163487   2.500333   3.123244   1.117516   1.857914
                    6
     6  H    0.000000
 Symmetry turned off by external request.
 Stoichiometry    C2H4
 Framework group  C1[X(C2H4)]
 Deg. of freedom    12
 Full point group                 C1      NOp   1
 Rotational constants (GHZ):         143.2374050          29.6865825          24.6029366
 Standard basis: 6-311G (5D, 7F)
    38 basis functions,    72 primitive gaussians,    38 cartesian basis functions
     8 alpha electrons        8 beta electrons
       nuclear repulsion energy        33.0592806684 Hartrees.
 NAtoms=    6 NActive=    6 NUniq=    6 SFac= 1.00D+00 NAtFMM=   60 NAOKFM=F Big=F
 Integral buffers will be    131072 words long.
 Raffenetti 2 integral format.
 Two-electron integral symmetry is turned off.
 Nuclear repulsion after empirical dispersion term =       33.0584402465 Hartrees.
 One-electron integrals computed using PRISM.
 NBasis=    38 RedAO= T EigKep=  6.40D-03  NBF=    38
 NBsUse=    38 1.00D-06 EigRej= -1.00D+00 NBFU=    38
 Initial guess from the checkpoint file:  "geometry.chk"
 B after Tr=    -0.000293   -0.000454   -0.000460
         Rot=    1.000000    0.000001    0.000000    0.000005 Ang=   0.00 deg.
 Keep R1 ints in memory in canonical form, NReq=4036876.
 Requested convergence on RMS density matrix=1.00D-08 within  32 cycles.
 Requested convergence on MAX density matrix=1.00D-06.
 Requested convergence on             energy=1.00D-06.
 No special actions if energy rises.
 SCF Done:  E(RwB97XD) =  -78.5554865816     A.U. after    8 cycles
            NFock=  8  Conv=0.55D-08     -V/T= 2.0052
 QCSCF skips out because SCF is already converged.

 **********************************************************************

            Population analysis using the SCF Density.

 **********************************************************************

 Alpha  occ. eigenvalues --  -10.29127 -10.28772  -0.86399  -0.67173  -0.55864
 Alpha  occ. eigenvalues --   -0.51004  -0.43559  -0.35723
 Alpha virt. eigenvalues --    0.07992   0.14080   0.16412   0.16974   0.24078
 Alpha virt. eigenvalues --    0.37569   0.39186   0.39843   0.46295   0.48799
 Alpha virt. eigenvalues --    0.49353   0.59110   0.66474   0.68990   0.77174
 Alpha virt. eigenvalues --    0.77618   0.83929   0.95347   2.23207   2.28910
 Alpha virt. eigenvalues --    2.33298   2.40524   2.67139   2.81684   2.87958
 Alpha virt. eigenvalues --    2.95084   3.14122   3.31535  23.35098  23.70677
     Molecular Orbital Coefficients:
                           1         2         3         4         5
                           O         O         O         O         O
     Eigenvalues --   -10.29127 -10.28772  -0.86399  -0.67173  -0.55864
   1 1   C  1S          0.07090   0.55891  -0.08865   0.06646  -0.00033
   2        2S          0.05855   0.45998  -0.14011   0.10645  -0.00054
   3        2PX         0.00016  -0.00000   0.02611   0.03724   0.13784
   4        2PY         0.00028   0.00000   0.04638   0.06167  -0.07426
   5        2PZ         0.00000  -0.00001  -0.00154   0.00238   0.00025
   6        3S          0.00097   0.01462   0.37575  -0.29044   0.00149
   7        3PX        -0.00063   0.00040   0.03435   0.05965   0.21587
   8        3PY        -0.00108   0.00071   0.06068   0.09972  -0.11707
   9        3PZ        -0.00002  -0.00004  -0.00259   0.00425   0.00038
  10        4S          0.00412  -0.01450   0.19184  -0.22641   0.00096
  11        4PX         0.00158  -0.00146   0.00474   0.02392   0.11196
  12        4PY         0.00272  -0.00251   0.00844   0.04105  -0.06145
  13        4PZ         0.00000   0.00010  -0.00092   0.00214   0.00018
  14 2   H  1S         -0.00004  -0.00006   0.05271  -0.08821   0.10245
  15        2S         -0.00031   0.00009   0.05385  -0.10599   0.12980
  16        3S          0.00073   0.00173  -0.00168  -0.01541   0.04215
  17 3   H  1S         -0.00005  -0.00007   0.05388  -0.09133  -0.10535
  18        2S         -0.00030   0.00007   0.05459  -0.10897  -0.13258
  19        3S          0.00076   0.00176  -0.00172  -0.01619  -0.04300
  20 4   C  1S          0.55893  -0.07109  -0.08670  -0.06858  -0.00014
  21        2S          0.46002  -0.05831  -0.13690  -0.10998  -0.00021
  22        2PX        -0.00001  -0.00016  -0.02794   0.03667   0.11780
  23        2PY        -0.00002  -0.00028  -0.04742   0.06525  -0.07332
  24        2PZ        -0.00000   0.00000  -0.00132  -0.00250   0.00026
  25        3S          0.01420  -0.00270   0.36683   0.30049   0.00057
  26        3PX        -0.00025   0.00071  -0.03507   0.05976   0.18472
  27        3PY        -0.00042   0.00124  -0.05943   0.10580  -0.11402
  28        3PZ        -0.00004  -0.00001  -0.00228  -0.00453   0.00039
  29        4S         -0.01270   0.00771   0.18872   0.23907  -0.00052
  30        4PX         0.00100  -0.00186  -0.00544   0.02604   0.10169
  31        4PY         0.00170  -0.00325  -0.00921   0.04500  -0.06210
  32        4PZ         0.00009  -0.00002  -0.00093  -0.00234   0.00020
  33 5   H  1S         -0.00005  -0.00004   0.04915   0.09272  -0.08932
  34        2S         -0.00000  -0.00031   0.05049   0.11123  -0.11318
  35        3S          0.00178   0.00025  -0.00120   0.01672  -0.03646
  36 6   H  1S         -0.00004  -0.00004   0.04817   0.09101   0.08533
  37        2S         -0.00001  -0.00032   0.04991   0.10969   0.10854
  38        3S          0.00174   0.00024  -0.00125   0.01623   0.03527
                           6         7         8         9        10
                           O         O         O         V         V
     Eigenvalues --    -0.51004  -0.43559  -0.35723   0.07992   0.14080
   1 1   C  1S         -0.00416   0.00016  -0.00117   0.00329  -0.03223
   2        2S         -0.00630   0.00028  -0.00190   0.00546  -0.05166
   3        2PX         0.09405  -0.11085  -0.00418   0.00177  -0.03150
   4        2PY         0.16765   0.06565  -0.00711   0.00293  -0.06363
   5        2PZ         0.00629   0.00000   0.17937  -0.18881  -0.00259
   6        3S          0.02303  -0.00062   0.00553  -0.01656   0.11179
   7        3PX         0.13662  -0.17679  -0.00590   0.00268  -0.03741
   8        3PY         0.24497   0.10511  -0.01003   0.00438  -0.07893
   9        3PZ         0.00996   0.00004   0.28852  -0.27779  -0.00420
  10        4S         -0.04982  -0.00280   0.00837  -0.01760   1.19382
  11        4PX         0.06893  -0.11051  -0.00475   0.01537  -0.19416
  12        4PY         0.12456   0.06630  -0.00810   0.02574  -0.38114
  13        4PZ         0.00563   0.00007   0.26679  -0.69533  -0.01527
  14 2   H  1S         -0.08034  -0.11493   0.00022   0.00509  -0.01560
  15        2S         -0.11079  -0.17765   0.00249   0.00796  -0.04547
  16        3S         -0.04137  -0.08236   0.00151   0.02112  -0.81281
  17 3   H  1S         -0.07865   0.11277   0.00013   0.00510  -0.01215
  18        2S         -0.10785   0.17362   0.00238   0.00807  -0.03712
  19        3S         -0.03995   0.08031   0.00145   0.02089  -0.75594
  20 4   C  1S         -0.00781  -0.00042  -0.00105  -0.00334  -0.03728
  21        2S         -0.01218  -0.00070  -0.00171  -0.00552  -0.05988
  22        2PX        -0.09823   0.12443   0.00404   0.00211   0.04127
  23        2PY        -0.16260  -0.07326   0.00741   0.00387   0.06280
  24        2PZ         0.00651   0.00025   0.17923   0.18937  -0.00414
  25        3S          0.03985   0.00200   0.00505   0.01650   0.13258
  26        3PX        -0.14520   0.19978   0.00563   0.00321   0.05048
  27        3PY        -0.23884  -0.11699   0.01039   0.00588   0.07440
  28        3PZ         0.01032   0.00037   0.28672   0.27745  -0.00625
  29        4S         -0.03384   0.00261   0.00816   0.02044   1.26647
  30        4PX        -0.07557   0.12848   0.00438   0.01609   0.26478
  31        4PY        -0.12302  -0.07453   0.00823   0.02881   0.41726
  32        4PZ         0.00599   0.00022   0.26684   0.69653  -0.02419
  33 5   H  1S         -0.07527  -0.12449   0.00027  -0.00505  -0.01363
  34        2S         -0.10317  -0.19488   0.00263  -0.00856  -0.03978
  35        3S         -0.03844  -0.09183   0.00144  -0.02259  -0.83996
  36 6   H  1S         -0.08041   0.12414   0.00017  -0.00506  -0.01691
  37        2S         -0.11059   0.19517   0.00249  -0.00858  -0.04801
  38        3S         -0.04137   0.09200   0.00135  -0.02291  -0.89823
                          11        12        13        14        15
                           V         V         V         V         V
     Eigenvalues --     0.16412   0.16974   0.24078   0.37569   0.39186
   1 1   C  1S          0.00105  -0.04601   0.00004   0.01086   0.00101
   2        2S          0.00169  -0.07498   0.00006   0.01525   0.00161
   3        2PX         0.09643  -0.02052   0.10065  -0.03671  -0.02358
   4        2PY        -0.05337  -0.03837  -0.05767  -0.06689   0.00938
   5        2PZ         0.00015  -0.00821   0.00004  -0.00566  -0.00023
   6        3S         -0.00364   0.16921   0.00022   0.03051  -0.00102
   7        3PX         0.13852  -0.01211   0.10703  -0.04811  -0.10548
   8        3PY        -0.07765  -0.02562  -0.06213  -0.09290   0.04841
   9        3PZ         0.00021  -0.01135  -0.00002  -0.01120  -0.00029
  10        4S         -0.04760   1.46061  -0.01509  -2.76965  -0.18921
  11        4PX         0.57371  -0.12200   1.16674  -1.59394  -0.54372
  12        4PY        -0.30945  -0.21689  -0.66665  -2.78570   0.14858
  13        4PZ         0.00106  -0.05372   0.00098  -0.05364  -0.00303
  14 2   H  1S         -0.02991  -0.02519   0.01337  -0.05459   0.07585
  15        2S         -0.08193  -0.01800  -0.02088  -0.63326   0.77138
  16        3S         -1.02215  -1.02300  -1.55519  -0.34399  -0.32902
  17 3   H  1S          0.02942  -0.02478  -0.01517  -0.04737  -0.07654
  18        2S          0.08135  -0.02044   0.01592  -0.57483  -0.76605
  19        3S          1.08400  -1.02546   1.57894  -0.41148   0.25908
  20 4   C  1S          0.00113   0.04184  -0.00008  -0.02010  -0.00010
  21        2S          0.00180   0.06814  -0.00014  -0.03287  -0.00001
  22        2PX         0.10246  -0.02247  -0.10011  -0.04175  -0.03144
  23        2PY        -0.06183  -0.03669   0.05739  -0.07443   0.01351
  24        2PZ         0.00022   0.00804  -0.00005   0.00441   0.00041
  25        3S         -0.00357  -0.15190   0.00031   0.04079  -0.00376
  26        3PX         0.14764  -0.01746  -0.11360  -0.09272  -0.10854
  27        3PY        -0.08812  -0.02652   0.06410  -0.16836   0.05746
  28        3PZ         0.00031   0.01111  -0.00002   0.00586   0.00085
  29        4S         -0.05319  -1.30744   0.00933   3.40999   0.16036
  30        4PX         0.54260  -0.11194  -1.11746  -1.24231  -0.53982
  31        4PY        -0.33250  -0.19022   0.64801  -2.18244   0.08856
  32        4PZ         0.00141   0.05195  -0.00104   0.04291   0.00309
  33 5   H  1S          0.03193   0.02524   0.00593   0.01251  -0.08040
  34        2S          0.07019   0.02313  -0.03331   0.09907  -0.78622
  35        3S          1.07683   0.91898  -1.50559   0.45855   0.48712
  36 6   H  1S         -0.03202   0.02580  -0.00472   0.00718   0.08759
  37        2S         -0.07063   0.02153   0.03450   0.05081   0.88622
  38        3S         -1.00606   0.92247   1.49104   0.47579  -0.46589
                          16        17        18        19        20
                           V         V         V         V         V
     Eigenvalues --     0.39843   0.46295   0.48799   0.49353   0.59110
   1 1   C  1S         -0.01732   0.01345  -0.04625   0.00025  -0.00067
   2        2S         -0.03069   0.03053  -0.07720   0.00075  -0.00121
   3        2PX         0.02416  -0.06167   0.01063   0.00128   0.00253
   4        2PY         0.04479  -0.10718   0.01378   0.00186   0.00388
   5        2PZ         0.00007  -0.00073   0.00399  -0.15153  -0.19272
   6        3S          0.07598  -0.33785   0.08528  -0.01276  -0.00065
   7        3PX         0.09770  -0.23989  -0.03792   0.00101   0.00852
   8        3PY         0.18509  -0.41541  -0.07475   0.00051   0.01315
   9        3PZ        -0.00542  -0.00586   0.01891  -0.62744  -0.68571
  10        4S          2.48891   0.00757   3.15782   0.06467   0.08449
  11        4PX         0.13971   0.19547   0.80593   0.02289   0.02585
  12        4PY         0.28168   0.36647   1.39537   0.04170   0.04556
  13        4PZ        -0.00221   0.00335  -0.09710   0.68454   1.24177
  14 2   H  1S         -0.02777  -0.03313  -0.07723  -0.00214  -0.00202
  15        2S         -0.55583  -0.31057  -0.92961  -0.01794  -0.01463
  16        3S          0.27130   0.05041   0.63738   0.02725   0.02812
  17 3   H  1S         -0.03534  -0.03508  -0.07548  -0.00210  -0.00195
  18        2S         -0.62511  -0.33295  -0.90614  -0.01775  -0.01328
  19        3S          0.28579   0.05204   0.60989   0.02660   0.02765
  20 4   C  1S         -0.00255  -0.00394   0.05098   0.00302   0.00082
  21        2S         -0.00775   0.00100   0.08885   0.00552   0.00153
  22        2PX         0.00646   0.05427   0.02810  -0.00031   0.00241
  23        2PY         0.01360   0.09356   0.05071  -0.00071   0.00465
  24        2PZ        -0.00454  -0.00219   0.00426  -0.15282   0.19229
  25        3S          0.08287  -0.28057  -0.23959  -0.02312  -0.00283
  26        3PX        -0.04891   0.23329   0.05858  -0.00061   0.00846
  27        3PY        -0.07346   0.40572   0.10359  -0.00198   0.01620
  28        3PZ        -0.01316  -0.00876   0.01447  -0.63158   0.68208
  29        4S         -0.66139   0.85819  -3.04842  -0.08956  -0.07451
  30        4PX         1.16376  -0.38534   0.62592   0.00886   0.02709
  31        4PY         2.10386  -0.64765   1.06909   0.01485   0.04546
  32        4PZ        -0.03777  -0.02110   0.05300   0.69544  -1.23782
  33 5   H  1S         -0.04936  -0.06511   0.06260   0.00202   0.00193
  34        2S         -0.85451  -0.65920   0.77951   0.03212   0.00728
  35        3S         -0.14183   0.29565  -0.55411  -0.00421  -0.02791
  36 6   H  1S         -0.04145  -0.06415   0.06265   0.00205   0.00196
  37        2S         -0.76427  -0.64575   0.77649   0.03179   0.00774
  38        3S         -0.16815   0.30944  -0.56960  -0.00522  -0.02824
                          21        22        23        24        25
                           V         V         V         V         V
     Eigenvalues --     0.66474   0.68990   0.77174   0.77618   0.83929
   1 1   C  1S          0.00069  -0.00052   0.05503   0.07059   0.00097
   2        2S          0.00142  -0.00115   0.11617   0.15052   0.00222
   3        2PX        -0.12211   0.20451  -0.01996   0.11440  -0.01032
   4        2PY         0.07094  -0.12202  -0.03467   0.18774   0.01370
   5        2PZ        -0.00007   0.00019   0.00109   0.00589   0.00017
   6        3S         -0.01114   0.01417  -0.79644  -1.31161  -0.02344
   7        3PX        -0.58087   0.72307  -0.15328   0.45164  -0.22729
   8        3PY         0.33451  -0.43136  -0.26568   0.73256   0.16210
   9        3PZ        -0.00042   0.00075   0.00397   0.02064   0.00056
  10        4S          0.01608  -0.05914   0.81732   2.45016  -0.00228
  11        4PX         1.08283  -0.79282   0.12058  -0.75132   4.46999
  12        4PY        -0.62434   0.48346   0.14756  -1.01975  -2.55520
  13        4PZ         0.00055   0.00115   0.00839  -0.06729   0.00423
  14 2   H  1S          0.02008  -0.06029   0.01236   0.03180  -0.02598
  15        2S          0.08893  -0.65727   0.08301   0.08945  -1.54429
  16        3S         -0.99271   1.14793  -0.15492  -1.10304  -1.22469
  17 3   H  1S         -0.01942   0.05981   0.01239   0.03237   0.02910
  18        2S         -0.09877   0.68493   0.10465   0.05642   1.57907
  19        3S          0.98628  -1.11363  -0.14583  -1.23443   1.22055
  20 4   C  1S          0.00087  -0.00040   0.08547   0.02635   0.00055
  21        2S          0.00178  -0.00076   0.18187   0.05539   0.00110
  22        2PX        -0.16053  -0.17706  -0.09385   0.05714   0.01406
  23        2PY         0.09197   0.09877  -0.16833   0.10442  -0.00142
  24        2PZ        -0.00012  -0.00022   0.00605  -0.00155  -0.00016
  25        3S         -0.01335   0.00038  -1.51153  -0.29170  -0.00423
  26        3PX        -0.71079  -0.58549  -0.33792   0.29541   0.25509
  27        3PY         0.40962   0.32400  -0.61089   0.53868  -0.11365
  28        3PZ        -0.00061  -0.00074   0.02136  -0.00576  -0.00042
  29        4S          0.01281   0.03251   2.70356  -0.03719  -0.00953
  30        4PX         1.28092   0.63706   0.49946  -0.26716  -4.17861
  31        4PY        -0.73463  -0.34629   0.96659  -0.70459   2.38762
  32        4PZ         0.00098  -0.00085  -0.06246   0.03400  -0.00377
  33 5   H  1S         -0.02833  -0.05412   0.03501   0.00096  -0.02266
  34        2S         -0.18139  -0.56334   0.06673   0.07379  -1.40682
  35        3S          1.14953   0.90644  -1.13411   0.35026  -1.09550
  36 6   H  1S          0.02887   0.05400   0.03468   0.00148   0.02235
  37        2S          0.17439   0.53808   0.06892   0.01929   1.39522
  38        3S         -1.15276  -0.92315  -1.07426   0.27761   1.10627
                          26        27        28        29        30
                           V         V         V         V         V
     Eigenvalues --     0.95347   2.23207   2.28910   2.33298   2.40524
   1 1   C  1S          0.09563  -0.01052  -0.01444   0.00030  -0.00041
   2        2S          0.19873   0.00094  -0.01485   0.00069  -0.00049
   3        2PX        -0.09190  -0.08330  -0.13286   0.33831  -0.41064
   4        2PY        -0.15917  -0.15469  -0.23139  -0.19263   0.23261
   5        2PZ         0.00007  -0.01648  -0.02170   0.00004  -0.00079
   6        3S         -1.53832  -0.18437  -0.03108  -0.00128  -0.00391
   7        3PX        -0.23608   0.08163   0.21092  -0.40346   0.57285
   8        3PY        -0.40264   0.16352   0.37877   0.23169  -0.32633
   9        3PZ        -0.00338   0.01644   0.02722   0.00008   0.00089
  10        4S          5.71709  -0.12484  -0.89342  -0.00070  -0.01507
  11        4PX         1.19731   0.05170  -0.18881  -0.02794   0.95736
  12        4PY         1.99525   0.07001  -0.35464   0.00835  -0.53084
  13        4PZ        -0.02091   0.00405   0.00982  -0.00025   0.00170
  14 2   H  1S          0.01546  -0.72066  -0.77998  -0.69605   0.66704
  15        2S         -0.28976   1.02789   1.17168   1.06355  -1.47104
  16        3S         -0.08902  -0.30598  -0.46615  -0.46567   0.38150
  17 3   H  1S          0.01574  -0.71246  -0.77929   0.68756  -0.68565
  18        2S         -0.26530   1.01699   1.17516  -1.05379   1.50993
  19        3S         -0.07261  -0.28636  -0.45223   0.45590  -0.37412
  20 4   C  1S         -0.09408  -0.00978   0.01197   0.00039   0.00023
  21        2S         -0.19520   0.00122   0.01165   0.00052   0.00044
  22        2PX        -0.09291   0.13019  -0.12655   0.31169   0.41212
  23        2PY        -0.16047   0.22747  -0.21283  -0.18040  -0.23715
  24        2PZ         0.00025  -0.01801   0.02187   0.00045   0.00036
  25        3S          1.50874  -0.17151   0.02070   0.00043  -0.00030
  26        3PX        -0.22970  -0.16642   0.21733  -0.39293  -0.57869
  27        3PY        -0.40155  -0.28698   0.36009   0.22532   0.33343
  28        3PZ         0.00408   0.01947  -0.02793  -0.00049  -0.00052
  29        4S         -5.69214  -0.14990   0.88207   0.01328   0.00110
  30        4PX         1.11504  -0.01470  -0.20238   0.09627  -0.84129
  31        4PY         1.99246  -0.03230  -0.32513  -0.05462   0.49311
  32        4PZ         0.01713   0.00523  -0.00801  -0.00011  -0.00144
  33 5   H  1S         -0.01815  -0.77913   0.68926   0.71564   0.67311
  34        2S          0.29102   1.12882  -1.05049  -1.04595  -1.43310
  35        3S          0.05539  -0.35419   0.41184   0.51747   0.42452
  36 6   H  1S         -0.01815  -0.77265   0.70767  -0.70374  -0.67339
  37        2S          0.31048   1.11722  -1.07242   1.02569   1.42695
  38        3S          0.06352  -0.35384   0.43528  -0.51420  -0.43164
                          31        32        33        34        35
                           V         V         V         V         V
     Eigenvalues --     2.67139   2.81684   2.87958   2.95084   3.14122
   1 1   C  1S          0.00059   0.00300  -0.01305   0.00000  -0.00943
   2        2S          0.00043   0.00881  -0.04397  -0.00025  -0.02903
   3        2PX         0.00626   0.08643  -0.46171  -0.73247   0.45580
   4        2PY         0.00968   0.15232  -0.83401   0.41212   0.79441
   5        2PZ        -0.92274  -0.92676  -0.16710  -0.00131   0.00900
   6        3S         -0.00154  -0.07345   0.38906   0.00392   0.24494
   7        3PX        -0.00439  -0.15076   0.82456   0.88237  -0.44564
   8        3PY        -0.00665  -0.26343   1.46348  -0.48392  -0.77470
   9        3PZ         0.93725   1.13260   0.21027   0.00179  -0.01143
  10        4S          0.01501   0.16907  -0.86995  -0.01179  -0.47610
  11        4PX        -0.00271   0.12164  -0.71021  -0.66256   0.23198
  12        4PY        -0.00396   0.21330  -1.26155   0.35370   0.39896
  13        4PZ        -0.33713  -0.61209  -0.13400  -0.00143   0.00707
  14 2   H  1S          0.01461  -0.02482   0.26689  -0.37528  -0.21873
  15        2S         -0.01673   0.01621  -0.22532   0.38308   0.16553
  16        3S         -0.00368   0.04899  -0.29745   0.27268   0.06533
  17 3   H  1S          0.01480  -0.02415   0.25760   0.37654  -0.21967
  18        2S         -0.01720   0.01458  -0.20929  -0.38046   0.16606
  19        3S         -0.00416   0.04924  -0.29761  -0.28789   0.07350
  20 4   C  1S          0.00064  -0.00301   0.01367   0.00048  -0.00719
  21        2S          0.00064  -0.00927   0.04784   0.00111  -0.02304
  22        2PX        -0.00899   0.07863  -0.41260  -0.80235  -0.49802
  23        2PY        -0.01660   0.13992  -0.73129   0.44483  -0.88315
  24        2PZ        -0.92658   0.92188   0.17099   0.00031   0.01526
  25        3S         -0.00369   0.07958  -0.43015  -0.00836   0.20090
  26        3PX         0.00958  -0.14257   0.77274   0.95280   0.52833
  27        3PY         0.01742  -0.25182   1.36127  -0.52114   0.94479
  28        3PZ         0.94235  -1.12772  -0.21518  -0.00037  -0.01927
  29        4S          0.01988  -0.17362   0.90466   0.02456  -0.38496
  30        4PX        -0.00122   0.12081  -0.70791  -0.69599  -0.31670
  31        4PY        -0.00287   0.21152  -1.23627   0.37610  -0.57100
  32        4PZ        -0.33984   0.60988   0.13760   0.00020   0.01505
  33 5   H  1S          0.01433   0.03224  -0.29406   0.41772  -0.25943
  34        2S         -0.01773  -0.02597   0.26780  -0.43194   0.20432
  35        3S         -0.00154  -0.04546   0.27855  -0.24001   0.11920
  36 6   H  1S          0.01448   0.03242  -0.29130  -0.42785  -0.24791
  37        2S         -0.01829  -0.02691   0.26969   0.44139   0.19476
  38        3S         -0.00111  -0.04355   0.26613   0.24172   0.11220
                          36        37        38
                           V         V         V
     Eigenvalues --     3.31535  23.35098  23.70677
   1 1   C  1S         -0.00031  -1.41184  -1.45439
   2        2S         -0.00043   1.50562   1.57279
   3        2PX         0.78398  -0.00656   0.01205
   4        2PY        -0.43841  -0.01081   0.02112
   5        2PZ         0.00111  -0.00067  -0.00027
   6        3S         -0.00057  -0.29500  -0.40044
   7        3PX        -1.12070   0.02441  -0.05586
   8        3PY         0.62289   0.04076  -0.09717
   9        3PZ        -0.00171   0.00190   0.00080
  10        4S         -0.00538   0.27103   0.77190
  11        4PX         1.95303  -0.02695   0.13357
  12        4PY        -1.08589  -0.04587   0.22996
  13        4PZ         0.00285  -0.00314  -0.00351
  14 2   H  1S          0.55753   0.01345   0.00722
  15        2S         -0.86311   0.00754  -0.01502
  16        3S         -0.46075  -0.08437  -0.03955
  17 3   H  1S         -0.56768   0.01496   0.00818
  18        2S          0.87761   0.00728  -0.01497
  19        3S          0.48357  -0.08624  -0.03958
  20 4   C  1S          0.00007  -1.44956   1.41663
  21        2S         -0.00017   1.54602  -1.53212
  22        2PX        -0.71217   0.00581   0.01267
  23        2PY         0.40881   0.01044   0.02162
  24        2PZ        -0.00095  -0.00066   0.00018
  25        3S          0.00410  -0.30347   0.39069
  26        3PX         1.01183  -0.02172  -0.05693
  27        3PY        -0.58876  -0.03861  -0.09796
  28        3PZ         0.00143   0.00191  -0.00050
  29        4S         -0.01573   0.28178  -0.76142
  30        4PX        -1.76975   0.02238   0.13186
  31        4PY         1.03708   0.04088   0.22860
  32        4PZ        -0.00243  -0.00316   0.00292
  33 5   H  1S          0.48501   0.01249  -0.00408
  34        2S         -0.75499   0.00844   0.01323
  35        3S         -0.42134  -0.08262   0.03670
  36 6   H  1S         -0.48036   0.01132  -0.00317
  37        2S          0.74976   0.00938   0.01294
  38        3S          0.41173  -0.08103   0.03632
     Density Matrix:
                           1         2         3         4         5
   1 1   C  1S          0.65940
   2        2S          0.56153   0.49204
   3        2PX        -0.00056  -0.00075   0.08443
   4        2PY        -0.00130  -0.00180   0.00358   0.08787
   5        2PZ         0.00011   0.00017  -0.00015  -0.00033   0.06444
   6        3S         -0.08895  -0.15388   0.00282   0.00638  -0.00027
   7        3PX         0.00087   0.00133   0.13069   0.00116  -0.00011
   8        3PY         0.00123   0.00189   0.00118   0.13140  -0.00029
   9        3PZ         0.00022   0.00037  -0.00026  -0.00053   0.10366
  10        4S         -0.07934  -0.11423  -0.01540  -0.02746   0.00071
  11        4PX         0.00026   0.00157   0.07040  -0.00457  -0.00068
  12        4PY         0.00058   0.00295  -0.00464   0.06556  -0.00120
  13        4PZ        -0.00011  -0.00028  -0.00102  -0.00174   0.09579
  14 2   H  1S         -0.02058  -0.03278   0.03479  -0.06324  -0.00146
  15        2S         -0.02280  -0.03646   0.04922  -0.08786  -0.00111
  16        3S          0.00057  -0.00071   0.02085  -0.03302  -0.00003
  17 3   H  1S         -0.02102  -0.03345  -0.07283  -0.00219  -0.00160
  18        2S         -0.02309  -0.03688  -0.10061  -0.00209  -0.00126
  19        3S          0.00061  -0.00067  -0.03848   0.00136  -0.00008
  20 4   C  1S          0.00611   0.00985  -0.01086  -0.01883  -0.00053
  21        2S          0.00981   0.01534  -0.01737  -0.03013  -0.00087
  22        2PX         0.01041   0.01665  -0.01235  -0.03222   0.00054
  23        2PY         0.01812   0.02897  -0.03223  -0.04971   0.00103
  24        2PZ        -0.00057  -0.00092  -0.00051  -0.00080   0.06437
  25        3S         -0.02645  -0.04017   0.04871   0.08457   0.00261
  26        3PX         0.01606   0.02490  -0.01810  -0.04585   0.00068
  27        3PY         0.02793   0.04330  -0.04573  -0.07112   0.00135
  28        3PZ        -0.00097  -0.00155  -0.00088  -0.00139   0.10298
  29        4S          0.00539   0.00401   0.02050   0.03594   0.00306
  30        4PX         0.00308   0.00637  -0.01304  -0.02093   0.00082
  31        4PY         0.00524   0.01091  -0.02094  -0.03723   0.00162
  32        4PZ        -0.00083  -0.00133  -0.00132  -0.00216   0.09580
  33 5   H  1S          0.00420   0.00690  -0.00171  -0.01233  -0.00061
  34        2S          0.00635   0.01055   0.00350  -0.02501  -0.00004
  35        3S          0.00328   0.00480   0.00425  -0.01760   0.00010
  36 6   H  1S          0.00416   0.00682  -0.00983  -0.00764  -0.00062
  37        2S          0.00627   0.01045  -0.02339  -0.00945  -0.00007
  38        3S          0.00324   0.00476  -0.01732  -0.00516   0.00006
                           6         7         8         9        10
   6        3S          0.45265
   7        3PX        -0.00173   0.20258
   8        3PY        -0.00162  -0.00459   0.19699
   9        3PZ        -0.00077  -0.00021  -0.00046   0.16674
  10        4S          0.27308  -0.02615  -0.04730   0.00092   0.18171
  11        4PX        -0.00678   0.10948  -0.01024  -0.00111  -0.01507
  12        4PY        -0.01219  -0.01037   0.09872  -0.00193  -0.02829
  13        4PZ         0.00127  -0.00136  -0.00230   0.15408   0.00258
  14 2   H  1S          0.08760   0.05601  -0.09871  -0.00243   0.06902
  15        2S          0.09757   0.07961  -0.13667  -0.00187   0.08098
  16        3S          0.00607   0.03404  -0.05076  -0.00005   0.01098
  17 3   H  1S          0.08946  -0.11404  -0.00184  -0.00261   0.06904
  18        2S          0.09877  -0.15737  -0.00046  -0.00207   0.07985
  19        3S          0.00611  -0.05994   0.00391  -0.00012   0.01010
  20 4   C  1S         -0.02668  -0.01693  -0.02937  -0.00091   0.00522
  21        2S         -0.04039  -0.02630  -0.04565  -0.00146   0.00394
  22        2PX        -0.04659  -0.01757  -0.04571   0.00093  -0.01794
  23        2PY        -0.08108  -0.04574  -0.07079   0.00178  -0.03113
  24        2PZ         0.00274  -0.00070  -0.00107   0.10354   0.00298
  25        3S          0.10297   0.07140   0.12412   0.00437   0.00098
  26        3PX        -0.06737  -0.02590  -0.06484   0.00120  -0.02674
  27        3PY        -0.11717  -0.06470  -0.10123   0.00235  -0.04634
  28        3PZ         0.00456  -0.00122  -0.00189   0.16563   0.00494
  29        4S          0.00168   0.03102   0.05455   0.00509  -0.03268
  30        4PX        -0.02256  -0.01949  -0.02939   0.00136  -0.00674
  31        4PY        -0.03882  -0.02944  -0.05372   0.00268  -0.01110
  32        4PZ         0.00389  -0.00185  -0.00300   0.15408   0.00458
  33 5   H  1S         -0.02050  -0.00068  -0.01769  -0.00089  -0.01509
  34        2S         -0.03149   0.00856  -0.03676   0.00005  -0.01979
  35        3S         -0.01235   0.00812  -0.02645   0.00018  -0.00372
  36 6   H  1S         -0.02027  -0.01486  -0.00929  -0.00090  -0.01525
  37        2S         -0.03120  -0.03587  -0.01069   0.00000  -0.02033
  38        3S         -0.01226  -0.02677  -0.00613   0.00013  -0.00412
                          11        12        13        14        15
  11        4PX         0.06024
  12        4PY        -0.00910   0.05104
  13        4PZ        -0.00164  -0.00277   0.14243
  14 2   H  1S          0.03355  -0.05420  -0.00124   0.08144
  15        2S          0.04847  -0.07494  -0.00045   0.10961   0.14964
  16        3S          0.02117  -0.02773   0.00028   0.03676   0.05246
  17 3   H  1S         -0.06322   0.00171  -0.00133  -0.01308  -0.02482
  18        2S         -0.08765   0.00438  -0.00054  -0.02476  -0.04321
  19        3S         -0.03369   0.00460   0.00025  -0.01818  -0.02759
  20 4   C  1S         -0.00313  -0.00566  -0.00079   0.00424   0.00668
  21        2S         -0.00649  -0.01161  -0.00128   0.00701   0.01116
  22        2PX        -0.01321  -0.01997   0.00132   0.00191  -0.00263
  23        2PY        -0.02004  -0.03677   0.00245   0.01143   0.02412
  24        2PZ        -0.00093  -0.00151   0.09570  -0.00067  -0.00018
  25        3S          0.02304   0.04099   0.00376  -0.02108  -0.03356
  26        3PX        -0.02034  -0.02816   0.00179   0.00102  -0.00727
  27        3PY        -0.02821  -0.05349   0.00336   0.01698   0.03611
  28        3PZ        -0.00153  -0.00248   0.15309  -0.00098  -0.00018
  29        4S          0.00773   0.01455   0.00465  -0.01754  -0.02386
  30        4PX        -0.01488  -0.01230   0.00167  -0.00172  -0.00859
  31        4PY        -0.01239  -0.02947   0.00318   0.01527   0.02713
  32        4PZ        -0.00183  -0.00303   0.14244  -0.00054   0.00037
  33 5   H  1S          0.00203  -0.01584  -0.00045   0.01123   0.02336
  34        2S          0.00928  -0.02769   0.00056   0.02388   0.04459
  35        3S          0.00761  -0.01594   0.00038   0.01674   0.02802
  36 6   H  1S         -0.01461  -0.00577  -0.00046  -0.00911  -0.01824
  37        2S         -0.02838  -0.00520   0.00053  -0.01894  -0.03452
  38        3S         -0.01738  -0.00114   0.00035  -0.01027  -0.01794
                          16        17        18        19        20
  16        3S          0.02103
  17 3   H  1S         -0.01832   0.08249
  18        2S         -0.02767   0.10984   0.14843
  19        3S         -0.01303   0.03623   0.05125   0.02033
  20 4   C  1S          0.00368   0.00430   0.00670   0.00368   0.65947
  21        2S          0.00542   0.00710   0.01117   0.00540   0.56155
  22        2PX        -0.00346   0.00898   0.02213   0.01662   0.00121
  23        2PY         0.01751   0.00748   0.00971   0.00560   0.00190
  24        2PZ         0.00006  -0.00066  -0.00014   0.00010   0.00009
  25        3S         -0.01404  -0.02130  -0.03348  -0.01388  -0.08920
  26        3PX        -0.00703   0.01428   0.03489   0.02600  -0.00047
  27        3PY         0.02639   0.00948   0.01163   0.00691  -0.00101
  28        3PZ         0.00013  -0.00097  -0.00010   0.00018   0.00021
  29        4S         -0.00564  -0.01731  -0.02311  -0.00519  -0.08030
  30        4PX        -0.00711   0.01410   0.02770   0.01711  -0.00021
  31        4PY         0.01588   0.00642   0.00635   0.00179  -0.00023
  32        4PZ         0.00036  -0.00054   0.00041   0.00039  -0.00007
  33 5   H  1S          0.01618  -0.00906  -0.01815  -0.00947  -0.01999
  34        2S          0.02751  -0.01876  -0.03413  -0.01709  -0.02217
  35        3S          0.01473  -0.01017  -0.01770  -0.00907   0.00055
  36 6   H  1S         -0.00957   0.01123   0.02325   0.01591  -0.01975
  37        2S         -0.01739   0.02388   0.04440   0.02713  -0.02213
  38        3S         -0.00925   0.01673   0.02785   0.01453   0.00046
                          21        22        23        24        25
  21        2S          0.49202
  22        2PX         0.00174   0.08230
  23        2PY         0.00271   0.00393   0.08748
  24        2PZ         0.00014   0.00018   0.00026   0.06435
  25        3S         -0.15414  -0.00562  -0.00884  -0.00014   0.45337
  26        3PX        -0.00070   0.12815   0.00207   0.00012  -0.00033
  27        3PY        -0.00154   0.00211   0.13113   0.00012   0.00043
  28        3PZ         0.00035   0.00027   0.00040   0.10294  -0.00067
  29        4S         -0.11605   0.01423   0.02412   0.00079   0.27913
  30        4PX        -0.00150   0.07303  -0.00518   0.00059   0.00634
  31        4PY        -0.00234  -0.00513   0.06690   0.00108   0.01026
  32        4PZ        -0.00020   0.00096   0.00172   0.09574   0.00109
  33 5   H  1S         -0.03185  -0.03318   0.06326  -0.00159   0.08518
  34        2S         -0.03544  -0.04954   0.08847  -0.00125   0.09479
  35        3S         -0.00067  -0.02259   0.03362  -0.00013   0.00576
  36 6   H  1S         -0.03149   0.07078   0.00276  -0.00146   0.08422
  37        2S         -0.03540   0.10114   0.00107  -0.00108   0.09465
  38        3S         -0.00080   0.04060  -0.00294  -0.00007   0.00601
                          26        27        28        29        30
  26        3PX         0.19990
  27        3PY        -0.00258   0.19713
  28        3PZ         0.00015   0.00016   0.16469
  29        4S          0.02613   0.04403   0.00096   0.18842
  30        4PX         0.11439  -0.01091   0.00092   0.01609   0.06658
  31        4PY        -0.01088   0.10114   0.00171   0.02608  -0.01065
  32        4PZ         0.00121   0.00220   0.15317   0.00247   0.00142
  33 5   H  1S         -0.05325   0.09923  -0.00263   0.06742  -0.03448
  34        2S         -0.07993   0.13828  -0.00209   0.07836  -0.05223
  35        3S         -0.03690   0.05187  -0.00021   0.00968  -0.02430
  36 6   H  1S          0.11198   0.00344  -0.00245   0.06770   0.06562
  37        2S          0.15983  -0.00027  -0.00185   0.07971   0.09413
  38        3S          0.06385  -0.00620  -0.00013   0.01051   0.03794
                          31        32        33        34        35
  31        4PY         0.05347
  32        4PZ         0.00267   0.14250
  33 5   H  1S          0.05561  -0.00138   0.08031
  34        2S          0.07761  -0.00058   0.10986   0.15272
  35        3S          0.02923   0.00018   0.03815   0.05558   0.02305
  36 6   H  1S         -0.00201  -0.00130  -0.01244  -0.02600  -0.01991
  37        2S         -0.00637  -0.00048  -0.02609  -0.04836  -0.03170
  38        3S         -0.00641   0.00020  -0.02009  -0.03182  -0.01573
                          36        37        38
  36 6   H  1S          0.07952
  37        2S          0.10954   0.15326
  38        3S          0.03835   0.05616   0.02338
    Full Mulliken population analysis:
                           1         2         3         4         5
   1 1   C  1S          0.65940
   2        2S          0.49327   0.49204
   3        2PX         0.00000   0.00000   0.08443
   4        2PY         0.00000   0.00000   0.00000   0.08787
   5        2PZ         0.00000   0.00000   0.00000   0.00000   0.06444
   6        3S         -0.02928  -0.06445   0.00000   0.00000   0.00000
   7        3PX         0.00000   0.00000   0.08222   0.00000   0.00000
   8        3PY         0.00000   0.00000   0.00000   0.08267   0.00000
   9        3PZ         0.00000   0.00000   0.00000   0.00000   0.06521
  10        4S         -0.01220  -0.02138   0.00000   0.00000   0.00000
  11        4PX         0.00000   0.00000   0.01550   0.00000   0.00000
  12        4PY         0.00000   0.00000   0.00000   0.01444   0.00000
  13        4PZ         0.00000   0.00000   0.00000   0.00000   0.02110
  14 2   H  1S         -0.00023  -0.00033   0.00180   0.00568   0.00001
  15        2S         -0.00167  -0.00319   0.00429   0.01327   0.00001
  16        3S          0.00005  -0.00007   0.00069   0.00191   0.00000
  17 3   H  1S         -0.00025  -0.00037   0.00790   0.00000   0.00001
  18        2S         -0.00173  -0.00331   0.01775   0.00000   0.00001
  19        3S          0.00005  -0.00006   0.00256  -0.00000   0.00000
  20 4   C  1S          0.00000   0.00000  -0.00002  -0.00006   0.00000
  21        2S          0.00000  -0.00000  -0.00002  -0.00006   0.00000
  22        2PX        -0.00002  -0.00002   0.00011   0.00086   0.00000
  23        2PY        -0.00006  -0.00005   0.00086   0.00198   0.00000
  24        2PZ        -0.00000  -0.00000  -0.00000  -0.00000   0.00042
  25        3S         -0.00060  -0.00101   0.00255   0.00768  -0.00000
  26        3PX        -0.00055  -0.00100   0.00019   0.00556   0.00000
  27        3PY        -0.00164  -0.00302   0.00555   0.01070   0.00000
  28        3PZ        -0.00000  -0.00000  -0.00000  -0.00000   0.00615
  29        4S          0.00034   0.00030   0.00093   0.00283  -0.00000
  30        4PX        -0.00018  -0.00045  -0.00071   0.00145   0.00000
  31        4PY        -0.00053  -0.00134   0.00145   0.00096   0.00000
  32        4PZ        -0.00000  -0.00000  -0.00000  -0.00000   0.00903
  33 5   H  1S          0.00000   0.00000  -0.00000  -0.00000   0.00000
  34        2S          0.00001   0.00002   0.00000  -0.00031   0.00000
  35        3S          0.00008   0.00013   0.00001  -0.00070  -0.00000
  36 6   H  1S          0.00000   0.00000  -0.00000  -0.00000   0.00000
  37        2S          0.00001   0.00002  -0.00024  -0.00007   0.00000
  38        3S          0.00007   0.00013  -0.00057  -0.00012  -0.00000
                           6         7         8         9        10
   6        3S          0.45265
   7        3PX         0.00000   0.20258
   8        3PY         0.00000   0.00000   0.19699
   9        3PZ         0.00000   0.00000   0.00000   0.16674
  10        4S          0.21155   0.00000   0.00000   0.00000   0.18171
  11        4PX         0.00000   0.07154   0.00000   0.00000   0.00000
  12        4PY         0.00000   0.00000   0.06451   0.00000   0.00000
  13        4PZ         0.00000   0.00000   0.00000   0.10069   0.00000
  14 2   H  1S          0.01614   0.01068   0.03263   0.00003   0.01828
  15        2S          0.04114   0.01942   0.05784   0.00003   0.04672
  16        3S          0.00280   0.00395   0.01023   0.00000   0.00829
  17 3   H  1S          0.01695   0.04434   0.00001   0.00004   0.01847
  18        2S          0.04230   0.07735   0.00000   0.00004   0.04644
  19        3S          0.00284   0.01390  -0.00001   0.00000   0.00766
  20 4   C  1S         -0.00060  -0.00058  -0.00173   0.00000   0.00033
  21        2S         -0.00101  -0.00106  -0.00318   0.00000   0.00030
  22        2PX         0.00244   0.00018   0.00555   0.00000   0.00081
  23        2PY         0.00736   0.00555   0.01065   0.00000   0.00245
  24        2PZ         0.00000  -0.00000  -0.00000   0.00618   0.00000
  25        3S          0.02203   0.01342   0.04039  -0.00000   0.00037
  26        3PX         0.01266  -0.00127   0.01853   0.00000   0.00412
  27        3PY         0.03813   0.01849   0.02844   0.00000   0.01238
  28        3PZ         0.00000  -0.00000  -0.00000   0.03544   0.00000
  29        4S          0.00064   0.00478   0.01457  -0.00000  -0.02054
  30        4PX         0.00634  -0.00401   0.00581   0.00000   0.00204
  31        4PY         0.01890   0.00582   0.00121   0.00000   0.00583
  32        4PZ         0.00000  -0.00000  -0.00000   0.04932   0.00000
  33 5   H  1S         -0.00005  -0.00000  -0.00019   0.00000  -0.00080
  34        2S         -0.00121   0.00006  -0.00321  -0.00000  -0.00331
  35        3S         -0.00201   0.00010  -0.00425  -0.00000  -0.00134
  36 6   H  1S         -0.00005  -0.00012  -0.00005   0.00000  -0.00080
  37        2S         -0.00117  -0.00254  -0.00052  -0.00000  -0.00336
  38        3S         -0.00197  -0.00354  -0.00056  -0.00000  -0.00147
                          11        12        13        14        15
  11        4PX         0.06024
  12        4PY         0.00000   0.05104
  13        4PZ         0.00000   0.00000   0.14243
  14 2   H  1S          0.00627   0.01757   0.00002   0.08144
  15        2S          0.01525   0.04089   0.00001   0.07743   0.14964
  16        3S          0.00522   0.01185  -0.00000   0.01373   0.04139
  17 3   H  1S          0.02368  -0.00001   0.00002  -0.00001  -0.00067
  18        2S          0.05512  -0.00003   0.00001  -0.00067  -0.00551
  19        3S          0.01654  -0.00003  -0.00000  -0.00205  -0.00811
  20 4   C  1S         -0.00018  -0.00057   0.00000   0.00000   0.00002
  21        2S         -0.00046  -0.00143   0.00000   0.00000   0.00003
  22        2PX        -0.00072   0.00138   0.00000  -0.00000   0.00000
  23        2PY         0.00139   0.00094   0.00000  -0.00000  -0.00036
  24        2PZ        -0.00000  -0.00000   0.00902   0.00000   0.00000
  25        3S          0.00647   0.01995  -0.00000  -0.00007  -0.00148
  26        3PX        -0.00419   0.00557   0.00000  -0.00000   0.00004
  27        3PY         0.00558   0.00121   0.00000  -0.00022  -0.00354
  28        3PZ        -0.00000  -0.00000   0.04900   0.00000   0.00000
  29        4S          0.00234   0.00763  -0.00000  -0.00102  -0.00428
  30        4PX        -0.00718   0.00311   0.00000   0.00002   0.00019
  31        4PY         0.00313  -0.00562   0.00000  -0.00242  -0.01021
  32        4PZ        -0.00000  -0.00000   0.08954   0.00000  -0.00000
  33 5   H  1S          0.00002  -0.00234   0.00000   0.00000   0.00000
  34        2S          0.00026  -0.00991  -0.00000   0.00000   0.00015
  35        3S          0.00028  -0.00735  -0.00000   0.00023   0.00146
  36 6   H  1S         -0.00176  -0.00048   0.00000  -0.00000  -0.00004
  37        2S         -0.00833  -0.00105  -0.00000  -0.00004  -0.00091
  38        3S         -0.00661  -0.00030  -0.00000  -0.00046  -0.00247
                          16        17        18        19        20
  16        3S          0.02103
  17 3   H  1S         -0.00206   0.08249
  18        2S         -0.00813   0.07759   0.14843
  19        3S         -0.00681   0.01354   0.04044   0.02033
  20 4   C  1S          0.00009   0.00000   0.00002   0.00009   0.65947
  21        2S          0.00016   0.00000   0.00003   0.00016   0.49329
  22        2PX         0.00001  -0.00000  -0.00028  -0.00058   0.00000
  23        2PY        -0.00073  -0.00000  -0.00008  -0.00013   0.00000
  24        2PZ        -0.00000   0.00000   0.00000  -0.00000   0.00000
  25        3S         -0.00242  -0.00007  -0.00148  -0.00240  -0.02936
  26        3PX         0.00007  -0.00016  -0.00286  -0.00363   0.00000
  27        3PY        -0.00441  -0.00007  -0.00064  -0.00064   0.00000
  28        3PZ        -0.00000   0.00000   0.00000  -0.00000   0.00000
  29        4S         -0.00212  -0.00101  -0.00416  -0.00195  -0.01235
  30        4PX         0.00019  -0.00187  -0.00871  -0.00673   0.00000
  31        4PY        -0.00749  -0.00057  -0.00133  -0.00047   0.00000
  32        4PZ        -0.00000   0.00000  -0.00000  -0.00000   0.00000
  33 5   H  1S          0.00022  -0.00000  -0.00004  -0.00043  -0.00021
  34        2S          0.00144  -0.00004  -0.00090  -0.00236  -0.00157
  35        3S          0.00247  -0.00046  -0.00244  -0.00288   0.00004
  36 6   H  1S         -0.00043   0.00000   0.00000   0.00022  -0.00020
  37        2S         -0.00240   0.00000   0.00015   0.00141  -0.00154
  38        3S         -0.00294   0.00023   0.00145   0.00243   0.00004
                          21        22        23        24        25
  21        2S          0.49202
  22        2PX         0.00000   0.08230
  23        2PY         0.00000   0.00000   0.08748
  24        2PZ         0.00000   0.00000   0.00000   0.06435
  25        3S         -0.06455   0.00000   0.00000   0.00000   0.45337
  26        3PX         0.00000   0.08062   0.00000   0.00000   0.00000
  27        3PY         0.00000   0.00000   0.08249   0.00000   0.00000
  28        3PZ         0.00000   0.00000   0.00000   0.06476   0.00000
  29        4S         -0.02172   0.00000   0.00000   0.00000   0.21624
  30        4PX         0.00000   0.01608   0.00000   0.00000   0.00000
  31        4PY         0.00000   0.00000   0.01473   0.00000   0.00000
  32        4PZ         0.00000   0.00000   0.00000   0.02109   0.00000
  33 5   H  1S         -0.00029   0.00145   0.00552   0.00001   0.01511
  34        2S         -0.00300   0.00381   0.01355   0.00001   0.03913
  35        3S         -0.00006   0.00068   0.00201   0.00000   0.00263
  36 6   H  1S         -0.00027   0.00666   0.00002   0.00000   0.01462
  37        2S         -0.00294   0.01714   0.00001   0.00001   0.03860
  38        3S         -0.00007   0.00271  -0.00001   0.00000   0.00273
                          26        27        28        29        30
  26        3PX         0.19990
  27        3PY         0.00000   0.19713
  28        3PZ         0.00000   0.00000   0.16469
  29        4S          0.00000   0.00000   0.00000   0.18842
  30        4PX         0.07475   0.00000   0.00000   0.00000   0.06658
  31        4PY         0.00000   0.06609   0.00000   0.00000   0.00000
  32        4PZ         0.00000   0.00000   0.10009   0.00000   0.00000
  33 5   H  1S          0.00888   0.03300   0.00004   0.01760   0.00578
  34        2S          0.01735   0.05986   0.00004   0.04472   0.01477
  35        3S          0.00386   0.01082   0.00000   0.00726   0.00541
  36 6   H  1S          0.04097   0.00008   0.00003   0.01753   0.02444
  37        2S          0.07687  -0.00001   0.00003   0.04520   0.05931
  38        3S          0.01490  -0.00009   0.00000   0.00786   0.01886
                          31        32        33        34        35
  31        4PY         0.05347
  32        4PZ         0.00000   0.14250
  33 5   H  1S          0.01857   0.00002   0.08031
  34        2S          0.04376   0.00001   0.07760   0.15272
  35        3S          0.01297  -0.00000   0.01425   0.04385   0.02305
  36 6   H  1S         -0.00005   0.00002  -0.00001  -0.00076  -0.00231
  37        2S         -0.00024   0.00001  -0.00077  -0.00649  -0.00955
  38        3S         -0.00019  -0.00000  -0.00233  -0.00958  -0.00835
                          36        37        38
  36 6   H  1S          0.07952
  37        2S          0.07738   0.15326
  38        3S          0.01433   0.04431   0.02338
     Gross orbital populations:
                           1
   1 1   C  1S          1.10435
   2        2S          0.88586
   3        2PX         0.22726
   4        2PY         0.23654
   5        2PZ         0.16638
   6        3S          0.79305
   7        3PX         0.56127
   8        3PY         0.55631
   9        3PZ         0.42372
  10        4S          0.50255
  11        4PX         0.25941
  12        4PY         0.21098
  13        4PZ         0.41181
  14 2   H  1S          0.27442
  15        2S          0.46675
  16        3S          0.08577
  17 3   H  1S          0.27764
  18        2S          0.46481
  19        3S          0.08288
  20 4   C  1S          1.10442
  21        2S          0.88584
  22        2PX         0.22118
  23        2PY         0.23558
  24        2PZ         0.16584
  25        3S          0.79184
  26        3PX         0.55119
  27        3PY         0.55565
  28        3PZ         0.42027
  29        4S          0.51005
  30        4PX         0.27528
  31        4PY         0.21642
  32        4PZ         0.41161
  33 5   H  1S          0.27093
  34        2S          0.47046
  35        3S          0.08988
  36 6   H  1S          0.26847
  37        2S          0.47155
  38        3S          0.09177
          Condensed to atoms (all electrons):
               1          2          3          4          5          6
     1  C    5.033339   0.387443   0.388180   0.601975  -0.036010  -0.035440
     2  H    0.387443   0.517222  -0.034031  -0.039976   0.005983  -0.009696
     3  H    0.388180  -0.034031   0.514378  -0.039533  -0.009557   0.005888
     4  C    0.601975  -0.039976  -0.039533   5.056190   0.383506   0.383013
     5  H   -0.036010   0.005983  -0.009557   0.383506   0.527508  -0.040159
     6  H   -0.035440  -0.009696   0.005888   0.383013  -0.040159   0.528191
 Mulliken charges:
               1
     1  C   -0.339487
     2  H    0.173056
     3  H    0.174675
     4  C   -0.345175
     5  H    0.168728
     6  H    0.168203
 Sum of Mulliken charges =  -0.00000
 Mulliken charges with hydrogens summed into heavy atoms:
               1
     1  C    0.008244
     4  C   -0.008244
 Electronic spatial extent (au):  <R**2>=             83.7791
 Charge=             -0.0000 electrons
 Dipole moment (field-independent basis, Debye):
    X=             -0.0017    Y=              0.0122    Z=             -0.1300  Tot=              0.1306
 Quadrupole moment (field-independent basis, Debye-Ang):
   XX=            -12.2152   YY=            -12.2162   ZZ=            -15.6705
   XY=              0.0243   XZ=             -0.0011   YZ=             -0.0056
 Traceless Quadrupole moment (field-independent basis, Debye-Ang):
   XX=              1.1521   YY=              1.1511   ZZ=             -2.3032
   XY=              0.0243   XZ=             -0.0011   YZ=             -0.0056
 Octapole moment (field-independent basis, Debye-Ang**2):
  XXX=             -0.3150  YYY=             -0.0858  ZZZ=             -0.0558  XYY=              0.1337
  XXY=             -0.0471  XXZ=             -0.1686  XZZ=             -0.0955  YZZ=             -0.0956
  YYZ=             -0.2248  XYZ=             -0.0484
 Hexadecapole moment (field-independent basis, Debye-Ang**3):
 XXXX=            -34.3481 YYYY=            -55.2401 ZZZZ=            -17.8155 XXXY=             -7.2316
 XXXZ=              0.0126 YYYX=            -10.7033 YYYZ=              0.0155 ZZZX=              0.0219
 ZZZY=              0.0413 XXYY=            -16.2169 XXZZ=             -9.9391 YYZZ=            -13.6568
 XXYZ=              0.0070 YYXZ=              0.0000 ZZXY=             -3.2066
 N-N= 3.305844024651D+01 E-N=-2.478221122689D+02  KE= 7.814591374797D+01
 Orbital energies and kinetic energies (alpha):
                                 1                 2
   1         O               -10.291275         15.979150
   2         O               -10.287720         15.979318
   3         O                -0.863989          1.540882
   4         O                -0.671726          1.269461
   5         O                -0.558636          0.941301
   6         O                -0.510035          1.282539
   7         O                -0.435590          1.040837
   8         O                -0.357225          1.039469
   9         V                 0.079917          1.181824
  10         V                 0.140797          0.590376
  11         V                 0.164122          0.598452
  12         V                 0.169739          0.680685
  13         V                 0.240777          0.584763
  14         V                 0.375690          0.855114
  15         V                 0.391859          0.931095
  16         V                 0.398434          0.776673
  17         V                 0.462946          1.195147
  18         V                 0.487993          1.419592
  19         V                 0.493526          1.300826
  20         V                 0.591105          1.654094
  21         V                 0.664743          1.571768
  22         V                 0.689896          2.144413
  23         V                 0.771742          2.443799
  24         V                 0.776180          2.293366
  25         V                 0.839291          1.081901
  26         V                 0.953467          3.432913
  27         V                 2.232072          3.923493
  28         V                 2.289101          4.031786
  29         V                 2.332981          4.300483
  30         V                 2.405237          4.511928
  31         V                 2.671393          6.301232
  32         V                 2.816838          6.303197
  33         V                 2.879583          6.137991
  34         V                 2.950839          6.227013
  35         V                 3.141222          6.822045
  36         V                 3.315346          6.401853
  37         V                23.350976         60.073755
  38         V                23.706772         60.204792
 Total kinetic energy from orbitals= 7.814591374797D+01
 Calling FoFJK, ICntrl=      2127 FMM=F ISym2X=0 I1Cent= 0 IOpClX= 0 NMat=1 NMatS=1 NMatT=0.
 -------------------------------------------------------------------
 Center     Atomic                   Forces (Hartrees/Bohr)
 Number     Number              X              Y              Z
 -------------------------------------------------------------------
      1        6           0.011407586    0.006497098   -0.005077309
      2        1          -0.007921413    0.005439846    0.002598597
      3        1           0.002177367   -0.003553597    0.002390913
      4        6           0.010866692    0.012866590   -0.006058217
      5        1           0.003670908   -0.015928592    0.003017640
      6        1          -0.020201141   -0.005321345    0.003128376
 -------------------------------------------------------------------
 Cartesian Forces:  Max     0.020201141 RMS     0.008702269

 GradGradGradGradGradGradGradGradGradGradGradGradGradGradGradGradGradGrad
 Berny optimization.
 Search for a local minimum.
 Step number   1 out of a maximum of    2
 All quantities printed in internal units (Hartrees-Bohrs-Radians)
 Second derivative matrix not updated -- first step.
 The second derivative matrix:
                          X1        Y1        Z1        X2        Y2
           X1           0.75978
           Y1           0.10092   0.86351
           Z1           0.00767   0.01194   0.17301
           X2          -0.16353   0.09609   0.00275   0.14104
           Y2           0.10241  -0.28557  -0.00977  -0.11539   0.27453
           Z2           0.00430  -0.01223  -0.05559  -0.00393   0.01015
           X3          -0.35281  -0.00272  -0.01059  -0.00045  -0.00024
           Y3          -0.00896  -0.11006  -0.00260   0.03255   0.01868
           Z3          -0.01352  -0.00252  -0.05679   0.00196   0.00071
           X4          -0.26842  -0.17985  -0.00119   0.02296   0.01321
           Y4          -0.18014  -0.47609  -0.00197  -0.01326  -0.00763
           Z4           0.00153   0.00278  -0.09474  -0.00079  -0.00108
           X5           0.02340  -0.01351   0.00084  -0.00001   0.00001
           Y5           0.01171  -0.00676   0.00114   0.00001  -0.00000
           Z5          -0.00066   0.00040   0.01734   0.00033  -0.00018
           X6           0.00159  -0.00092   0.00052  -0.00001   0.00001
           Y6          -0.02593   0.01497   0.00126   0.00001  -0.00000
           Z6           0.00068  -0.00037   0.01677  -0.00033   0.00018
                          Z2        X3        Y3        Z3        X4
           Z2           0.02907
           X3          -0.00040   0.35295
           Y3           0.00209   0.00314   0.07595
           Z3           0.01055   0.01157   0.00179   0.02990
           X4           0.00072   0.00033  -0.02674  -0.00071   0.70659
           Y4          -0.00040  -0.00019   0.01544   0.00043   0.12357
           Z4           0.01592  -0.00057  -0.00128   0.01639  -0.00663
           X5          -0.00035  -0.00001   0.00001   0.00035  -0.14499
           Y5           0.00021   0.00001  -0.00000  -0.00021   0.09082
           Z5           0.00931   0.00034  -0.00021  -0.00946  -0.00415
           X6          -0.00034  -0.00001   0.00001   0.00035  -0.31648
           Y6           0.00019   0.00001  -0.00000  -0.00019  -0.02100
           Z6          -0.00925  -0.00034   0.00021   0.00940   0.01197
                          Y4        Z4        X5        Y5        Z5
           Y4           0.85617
           Z4          -0.01276   0.17575
           X5           0.08288  -0.00272   0.12362
           Y5          -0.28434   0.00980  -0.10155   0.27504
           Z5           0.01220  -0.05700   0.00368  -0.01045   0.02970
           X6          -0.01286   0.00918  -0.00200  -0.00099   0.00047
           Y6          -0.10355   0.00254   0.03217   0.01606  -0.00176
           Z6           0.00251  -0.05632  -0.00180  -0.00048   0.01011
                          X6        Y6        Z6
           X6           0.31692
           Y6           0.01475   0.07252
           Z6          -0.01018  -0.00204   0.02929
 ITU=  0
     Eigenvalues ---    0.03748   0.04371   0.09095   0.10157   0.13512
     Eigenvalues ---    0.17340   0.26472   0.28849   0.52712   0.69380
     Eigenvalues ---    0.97068   1.56826
 Angle between quadratic step and forces=  36.47 degrees.
 Linear search not attempted -- first point.
 B after Tr=     0.006157    0.006943   -0.013329
         Rot=    1.000000   -0.000013    0.000006   -0.000103 Ang=  -0.01 deg.
 Variable       Old X    -DE/DX   Delta X   Delta X   Delta X     New X
                                 (Linear)    (Quad)   (Total)
    X1       -0.63401   0.01141   0.00000   0.01890   0.02528  -0.60872
    Y1       -1.09733   0.00650   0.00000   0.02086   0.02768  -1.06965
    Z1        0.01462  -0.00508   0.00000  -0.02767  -0.04103  -0.02641
    X2        0.39970  -0.00792   0.00000  -0.02845  -0.02170   0.37801
    Y2       -2.89031   0.00544   0.00000   0.02071   0.02773  -2.86258
    Z2       -0.05662   0.00260   0.00000   0.03432   0.02092  -0.03570
    X3       -2.68382   0.00218   0.00000   0.02336   0.02975  -2.65406
    Y3       -1.12102  -0.00355   0.00000  -0.01062  -0.00422  -1.12524
    Z3       -0.05880   0.00239   0.00000   0.03351   0.02012  -0.03867
    X4        0.62883   0.01087   0.00000   0.00657   0.01250   0.64133
    Y4        1.08982   0.01287   0.00000   0.00789   0.01497   1.10479
    Z4        0.01243  -0.00606   0.00000  -0.02750  -0.04080  -0.02837
    X5       -0.31058   0.00367   0.00000  -0.00354   0.00202  -0.30857
    Y5        2.96287  -0.01593   0.00000  -0.04945  -0.04257   2.92031
    Z5       -0.06522   0.00302   0.00000   0.03408   0.02082  -0.04440
    X6        2.73546  -0.02020   0.00000  -0.05377  -0.04785   2.68761
    Y6        1.21692  -0.00532   0.00000  -0.03109  -0.02359   1.19333
    Z6       -0.06268   0.00313   0.00000   0.03323   0.01997  -0.04271
         Item               Value     Threshold  Converged?
 Maximum Force            0.020201     0.000450     NO 
 RMS     Force            0.008702     0.000300     NO 
 Maximum Displacement     0.047855     0.001800     NO 
 RMS     Displacement     0.027501     0.001200     NO 
 Predicted change in Energy=-1.830066D-03
 GradGradGradGradGradGradGradGradGradGradGradGradGradGradGradGradGradGrad

 Unable to Open any file for archive entry.
 1\1\GINC-BHD0006\Force\RwB97XD\6-311G\C2H4\BWEIGHT\11-Jan-2023\0\\# WB
 97XD/6-311G SCF=XQC FORCE nosym pop=full guess=read\\MD Step 999\\0,1\
 C,-0.33550185,-0.58068057,0.00773754\H,0.21151476,-1.52948652,-0.02996
 13\H,-1.42021391,-0.59321836,-0.0311138\C,0.3327607,0.57670929,0.00657
 649\H,-0.1643533,1.56788565,-0.03451134\H,1.447543,0.64396389,-0.03316
 94\\Version=ES64L-G16RevC.01\HF=-78.5554866\RMSD=5.491e-09\RMSF=8.702e
 -03\Dipole=-0.000686,0.0048074,-0.0511592\Quadrupole=0.8565648,0.85578
 17,-1.7123465,0.0180443,-0.0007973,-0.0041621\PG=C01 [X(C2H4)]\\@
 The archive entry for this job was punched.


 THOSE WHO ARE UNABLE TO LEARN FROM PAST MEETINGS
 ARE CONDEMNED TO REPEAT THEM.
 Job cpu time:       0 days  0 hours  0 minutes 43.2 seconds.
 Elapsed time:       0 days  0 hours  0 minutes 14.9 seconds.
 File lengths (MBytes):  RWF=    272 Int=      0 D2E=      0 Chk=     32 Scr=     32
 Normal termination of Gaussian 16 at Wed Jan 11 18:39:07 2023.
