 Entering Gaussian System, Link 0=g16
 Initial command:
 /software/gaussian/g16-c01/avx2/g16/l1.exe "/gpfs/fs2/scratch/bweight/software/many_molecule_many_mode_NAMD/src/NAMD/TEST_NVT/TRAJ/traj-66/G16/GS_NEW/Gau-32088.inp" -scrdir="/gpfs/fs2/scratch/bweight/software/many_molecule_many_mode_NAMD/src/NAMD/TEST_NVT/TRAJ/traj-66/G16/GS_NEW/"
 Entering Link 1 = /software/gaussian/g16-c01/avx2/g16/l1.exe PID=     32092.
  
 Copyright (c) 1988-2019, Gaussian, Inc.  All Rights Reserved.
  
 This is part of the Gaussian(R) 16 program.  It is based on
 the Gaussian(R) 09 system (copyright 2009, Gaussian, Inc.),
 the Gaussian(R) 03 system (copyright 2003, Gaussian, Inc.),
 the Gaussian(R) 98 system (copyright 1998, Gaussian, Inc.),
 the Gaussian(R) 94 system (copyright 1995, Gaussian, Inc.),
 the Gaussian 92(TM) system (copyright 1992, Gaussian, Inc.),
 the Gaussian 90(TM) system (copyright 1990, Gaussian, Inc.),
 the Gaussian 88(TM) system (copyright 1988, Gaussian, Inc.),
 the Gaussian 86(TM) system (copyright 1986, Carnegie Mellon
 University), and the Gaussian 82(TM) system (copyright 1983,
 Carnegie Mellon University). Gaussian is a federally registered
 trademark of Gaussian, Inc.
  
 This software contains proprietary and confidential information,
 including trade secrets, belonging to Gaussian, Inc.
  
 This software is provided under written license and may be
 used, copied, transmitted, or stored only in accord with that
 written license.
  
 The following legend is applicable only to US Government
 contracts under FAR:
  
                    RESTRICTED RIGHTS LEGEND
  
 Use, reproduction and disclosure by the US Government is
 subject to restrictions as set forth in subparagraphs (a)
 and (c) of the Commercial Computer Software - Restricted
 Rights clause in FAR 52.227-19.
  
 Gaussian, Inc.
 340 Quinnipiac St., Bldg. 40, Wallingford CT 06492
  
  
 ---------------------------------------------------------------
 Warning -- This program may not be used in any manner that
 competes with the business of Gaussian, Inc. or will provide
 assistance to any competitor of Gaussian, Inc.  The licensee
 of this program is prohibited from giving any competitor of
 Gaussian, Inc. access to this program.  By using this program,
 the user acknowledges that Gaussian, Inc. is engaged in the
 business of creating and licensing software in the field of
 computational chemistry and represents and warrants to the
 licensee that it is not a competitor of Gaussian, Inc. and that
 it will not use this program in any manner prohibited above.
 ---------------------------------------------------------------
  

 Cite this work as:
 Gaussian 16, Revision C.01,
 M. J. Frisch, G. W. Trucks, H. B. Schlegel, G. E. Scuseria, 
 M. A. Robb, J. R. Cheeseman, G. Scalmani, V. Barone, 
 G. A. Petersson, H. Nakatsuji, X. Li, M. Caricato, A. V. Marenich, 
 J. Bloino, B. G. Janesko, R. Gomperts, B. Mennucci, H. P. Hratchian, 
 J. V. Ortiz, A. F. Izmaylov, J. L. Sonnenberg, D. Williams-Young, 
 F. Ding, F. Lipparini, F. Egidi, J. Goings, B. Peng, A. Petrone, 
 T. Henderson, D. Ranasinghe, V. G. Zakrzewski, J. Gao, N. Rega, 
 G. Zheng, W. Liang, M. Hada, M. Ehara, K. Toyota, R. Fukuda, 
 J. Hasegawa, M. Ishida, T. Nakajima, Y. Honda, O. Kitao, H. Nakai, 
 T. Vreven, K. Throssell, J. A. Montgomery, Jr., J. E. Peralta, 
 F. Ogliaro, M. J. Bearpark, J. J. Heyd, E. N. Brothers, K. N. Kudin, 
 V. N. Staroverov, T. A. Keith, R. Kobayashi, J. Normand, 
 K. Raghavachari, A. P. Rendell, J. C. Burant, S. S. Iyengar, 
 J. Tomasi, M. Cossi, J. M. Millam, M. Klene, C. Adamo, R. Cammi, 
 J. W. Ochterski, R. L. Martin, K. Morokuma, O. Farkas, 
 J. B. Foresman, and D. J. Fox, Gaussian, Inc., Wallingford CT, 2019.
 
 ******************************************
 Gaussian 16:  ES64L-G16RevC.01  3-Jul-2019
                11-Jan-2023 
 ******************************************
 %oldchk=../GS_OLD/geometry.chk
 %chk=geometry.chk
 %nprocshared=4
 Will use up to    4 processors via shared memory.
 %mem=5GB
 Copying data from "../GS_OLD/geometry.chk" to current chk file "geometry.chk"
 IOpt=  2 FromEx=T IUOpen= 4 IOptOp= 5 NList=   0 IFRang= 0 IUIn= 4 IUOut= 2.
 -------------------------------------------------------
 # WB97XD/6-311G SCF=XQC FORCE nosym pop=full guess=read
 -------------------------------------------------------
 1/10=7,30=1,38=1/1,3;
 2/12=2,15=1,17=6,18=5,40=1/2;
 3/5=4,6=6,11=2,25=1,30=1,71=1,74=-58,116=-2/1,2,3;
 4/5=1/1;
 5/5=2,8=3,13=1,38=6/2,8;
 6/7=3,28=1/1;
 7/29=1,30=1/1,2,3,16;
 1/10=7,30=1/3;
 99//99;
 -----------
 MD Step 999
 -----------
 Symbolic Z-matrix:
 Charge =  0 Multiplicity = 1
 C                    -0.3338   -0.57847   0.0079 
 H                     0.19059  -1.53912  -0.03296 
 H                    -1.41698  -0.60383  -0.03337 
 C                     0.33374   0.5774    0.00653 
 H                    -0.18211   1.5574   -0.03468 
 H                     1.44595   0.63509  -0.03412 
 

 GradGradGradGradGradGradGradGradGradGradGradGradGradGradGradGradGradGrad
 Berny optimization.
 Initialization pass.
 Trust Radius=3.00D-01 FncErr=1.00D-07 GrdErr=1.00D-07 EigMax=2.50D+02 EigMin=1.00D-04
 Number of steps in this run=      2 maximum allowed number of steps=      2.
 GradGradGradGradGradGradGradGradGradGradGradGradGradGradGradGradGradGrad

                          Input orientation:                          
 ---------------------------------------------------------------------
 Center     Atomic      Atomic             Coordinates (Angstroms)
 Number     Number       Type             X           Y           Z
 ---------------------------------------------------------------------
      1          6           0       -0.333797   -0.578468    0.007897
      2          1           0        0.190590   -1.539124   -0.032963
      3          1           0       -1.416984   -0.603831   -0.033371
      4          6           0        0.333739    0.577396    0.006528
      5          1           0       -0.182108    1.557397   -0.034676
      6          1           0        1.445954    0.635089   -0.034119
 ---------------------------------------------------------------------
                    Distance matrix (angstroms):
                    1          2          3          4          5
     1  C    0.000000
     2  H    1.095223   0.000000
     3  H    1.084269   1.859857   0.000000
     4  C    1.334776   2.121723   2.112326   0.000000
     5  H    2.141667   3.118870   2.489142   1.108241   0.000000
     6  H    2.154530   2.510606   3.119509   1.114452   1.871160
                    6
     6  H    0.000000
 Symmetry turned off by external request.
 Stoichiometry    C2H4
 Framework group  C1[X(C2H4)]
 Deg. of freedom    12
 Full point group                 C1      NOp   1
 Rotational constants (GHZ):         143.8561619          29.7373147          24.6571254
 Standard basis: 6-311G (5D, 7F)
    38 basis functions,    72 primitive gaussians,    38 cartesian basis functions
     8 alpha electrons        8 beta electrons
       nuclear repulsion energy        33.0993655340 Hartrees.
 NAtoms=    6 NActive=    6 NUniq=    6 SFac= 1.00D+00 NAtFMM=   60 NAOKFM=F Big=F
 Integral buffers will be    131072 words long.
 Raffenetti 2 integral format.
 Two-electron integral symmetry is turned off.
 Nuclear repulsion after empirical dispersion term =       33.0985279829 Hartrees.
 One-electron integrals computed using PRISM.
 NBasis=    38 RedAO= T EigKep=  6.36D-03  NBF=    38
 NBsUse=    38 1.00D-06 EigRej= -1.00D+00 NBFU=    38
 Initial guess from the checkpoint file:  "geometry.chk"
 B after Tr=    -0.000148   -0.000297   -0.000397
         Rot=    1.000000   -0.000003    0.000002    0.000004 Ang=  -0.00 deg.
 Keep R1 ints in memory in canonical form, NReq=4036876.
 Requested convergence on RMS density matrix=1.00D-08 within  32 cycles.
 Requested convergence on MAX density matrix=1.00D-06.
 Requested convergence on             energy=1.00D-06.
 No special actions if energy rises.
 SCF Done:  E(RwB97XD) =  -78.5560034980     A.U. after    8 cycles
            NFock=  8  Conv=0.71D-08     -V/T= 2.0051
 QCSCF skips out because SCF is already converged.

 **********************************************************************

            Population analysis using the SCF Density.

 **********************************************************************

 Alpha  occ. eigenvalues --  -10.29086 -10.28693  -0.86435  -0.67223  -0.55845
 Alpha  occ. eigenvalues --   -0.51085  -0.43580  -0.35745
 Alpha virt. eigenvalues --    0.08026   0.14115   0.16435   0.17008   0.24113
 Alpha virt. eigenvalues --    0.37934   0.39173   0.39639   0.46351   0.48847
 Alpha virt. eigenvalues --    0.49343   0.59140   0.66482   0.69074   0.77232
 Alpha virt. eigenvalues --    0.77699   0.83854   0.95501   2.23232   2.28843
 Alpha virt. eigenvalues --    2.33360   2.40568   2.67193   2.81677   2.88045
 Alpha virt. eigenvalues --    2.95056   3.14261   3.31563  23.35162  23.70853
     Molecular Orbital Coefficients:
                           1         2         3         4         5
                           O         O         O         O         O
     Eigenvalues --   -10.29086 -10.28693  -0.86435  -0.67223  -0.55845
   1 1   C  1S          0.06475   0.55965  -0.08859   0.06653  -0.00061
   2        2S          0.05349   0.46060  -0.13999   0.10659  -0.00100
   3        2PX         0.00016  -0.00001   0.02584   0.03900   0.13434
   4        2PY         0.00028  -0.00001   0.04644   0.06430  -0.07450
   5        2PZ         0.00000  -0.00001  -0.00164   0.00265   0.00016
   6        3S          0.00080   0.01464   0.37518  -0.29083   0.00282
   7        3PX        -0.00064   0.00038   0.03339   0.06225   0.21001
   8        3PY        -0.00110   0.00069   0.05998   0.10366  -0.11699
   9        3PZ        -0.00002  -0.00004  -0.00276   0.00471   0.00023
  10        4S          0.00435  -0.01447   0.19098  -0.22760   0.00298
  11        4PX         0.00160  -0.00140   0.00455   0.02482   0.10975
  12        4PY         0.00277  -0.00247   0.00843   0.04302  -0.06208
  13        4PZ        -0.00000   0.00010  -0.00099   0.00235   0.00010
  14 2   H  1S         -0.00005  -0.00006   0.05216  -0.08989   0.10018
  15        2S         -0.00031   0.00008   0.05323  -0.10719   0.12666
  16        3S          0.00072   0.00172  -0.00153  -0.01570   0.04115
  17 3   H  1S         -0.00005  -0.00008   0.05375  -0.09279  -0.10165
  18        2S         -0.00031   0.00008   0.05418  -0.11004  -0.12777
  19        3S          0.00072   0.00177  -0.00148  -0.01655  -0.04158
  20 4   C  1S          0.55967  -0.06495  -0.08686  -0.06850  -0.00024
  21        2S          0.46063  -0.05325  -0.13719  -0.10980  -0.00039
  22        2PX        -0.00002  -0.00016  -0.02814   0.03544   0.12176
  23        2PY        -0.00003  -0.00028  -0.04743   0.06266  -0.07359
  24        2PZ        -0.00000   0.00000  -0.00136  -0.00245   0.00017
  25        3S          0.01427  -0.00256   0.36767   0.29984   0.00115
  26        3PX        -0.00027   0.00071  -0.03579   0.05791   0.19105
  27        3PY        -0.00044   0.00123  -0.05995   0.10204  -0.11484
  28        3PZ        -0.00004  -0.00001  -0.00233  -0.00446   0.00025
  29        4S         -0.01288   0.00756   0.18899   0.23684   0.00042
  30        4PX         0.00106  -0.00187  -0.00566   0.02523   0.10412
  31        4PY         0.00176  -0.00323  -0.00906   0.04284  -0.06163
  32        4PZ         0.00009  -0.00002  -0.00094  -0.00232   0.00012
  33 5   H  1S         -0.00006  -0.00004   0.04972   0.09100  -0.09206
  34        2S          0.00001  -0.00031   0.05094   0.10958  -0.11697
  35        3S          0.00179   0.00027  -0.00134   0.01638  -0.03777
  36 6   H  1S         -0.00004  -0.00004   0.04856   0.09020   0.08915
  37        2S         -0.00001  -0.00032   0.05035   0.10875   0.11338
  38        3S          0.00175   0.00028  -0.00143   0.01593   0.03676
                           6         7         8         9        10
                           O         O         O         V         V
     Eigenvalues --    -0.51085  -0.43580  -0.35745   0.08026   0.14115
   1 1   C  1S         -0.00571   0.00002  -0.00124   0.00343  -0.03205
   2        2S         -0.00881   0.00005  -0.00203   0.00570  -0.05136
   3        2PX         0.09529  -0.11391  -0.00435   0.00188  -0.03276
   4        2PY         0.16579   0.06787  -0.00743   0.00329  -0.06224
   5        2PZ         0.00660   0.00004   0.17929  -0.18867  -0.00273
   6        3S          0.02994   0.00014   0.00594  -0.01722   0.11106
   7        3PX         0.13882  -0.18119  -0.00613   0.00289  -0.03928
   8        3PY         0.24247   0.10875  -0.01047   0.00499  -0.07676
   9        3PZ         0.01044   0.00010   0.28831  -0.27774  -0.00435
  10        4S         -0.04152  -0.00246   0.00847  -0.01869   1.18455
  11        4PX         0.07051  -0.11344  -0.00496   0.01572  -0.20932
  12        4PY         0.12373   0.06783  -0.00855   0.02761  -0.38629
  13        4PZ         0.00596   0.00010   0.26664  -0.69646  -0.01686
  14 2   H  1S         -0.07862  -0.11737   0.00021   0.00536  -0.01351
  15        2S         -0.10751  -0.18172   0.00269   0.00862  -0.04150
  16        3S         -0.04000  -0.08475   0.00153   0.02209  -0.80307
  17 3   H  1S         -0.07855   0.11560   0.00014   0.00537  -0.01116
  18        2S         -0.10686   0.17801   0.00260   0.00848  -0.03700
  19        3S         -0.03953   0.08255   0.00150   0.02135  -0.77038
  20 4   C  1S         -0.00634  -0.00031  -0.00106  -0.00345  -0.03735
  21        2S         -0.00978  -0.00049  -0.00172  -0.00572  -0.06000
  22        2PX        -0.09777   0.12161   0.00425   0.00214   0.03946
  23        2PY        -0.16445  -0.07160   0.00768   0.00378   0.06410
  24        2PZ         0.00677   0.00019   0.17933   0.18922  -0.00426
  25        3S          0.03305   0.00136   0.00506   0.01716   0.13267
  26        3PX        -0.14390   0.19566   0.00593   0.00323   0.04776
  27        3PY        -0.24085  -0.11426   0.01078   0.00573   0.07634
  28        3PZ         0.01072   0.00028   0.28711   0.27738  -0.00649
  29        4S         -0.04235   0.00179   0.00872   0.02035   1.28119
  30        4PX        -0.07415   0.12430   0.00457   0.01704   0.25051
  31        4PY        -0.12319  -0.07279   0.00842   0.02931   0.41351
  32        4PZ         0.00613   0.00018   0.26639   0.69741  -0.02425
  33 5   H  1S         -0.07666  -0.12286   0.00029  -0.00520  -0.01507
  34        2S         -0.10543  -0.19196   0.00263  -0.00852  -0.04168
  35        3S         -0.03916  -0.09014   0.00153  -0.02333  -0.85324
  36 6   H  1S         -0.08135   0.12170   0.00022  -0.00520  -0.01709
  37        2S         -0.11204   0.19107   0.00254  -0.00876  -0.04710
  38        3S         -0.04163   0.08989   0.00146  -0.02391  -0.88884
                          11        12        13        14        15
                           V         V         V         V         V
     Eigenvalues --     0.16435   0.17008   0.24113   0.37934   0.39173
   1 1   C  1S         -0.00005  -0.04561   0.00023   0.01486   0.00130
   2        2S         -0.00009  -0.07429   0.00036   0.02233   0.00203
   3        2PX         0.09578  -0.02208   0.10092  -0.04032  -0.02397
   4        2PY        -0.05569  -0.03889  -0.05774  -0.07222   0.01112
   5        2PZ        -0.00007  -0.00860   0.00000  -0.00603  -0.00018
   6        3S          0.00027   0.16652   0.00016   0.01357   0.00155
   7        3PX         0.13799  -0.01463   0.10852  -0.06384  -0.10493
   8        3PY        -0.08036  -0.02621  -0.06306  -0.12140   0.05186
   9        3PZ        -0.00011  -0.01192  -0.00003  -0.01118   0.00008
  10        4S         -0.00799   1.46160  -0.03925  -3.26243  -0.24727
  11        4PX         0.55681  -0.12762   1.15712  -1.63189  -0.55225
  12        4PY        -0.31546  -0.22337  -0.67387  -2.84367   0.15357
  13        4PZ        -0.00021  -0.05647   0.00057  -0.05432  -0.00267
  14 2   H  1S         -0.03104  -0.02385   0.01187  -0.04241   0.07945
  15        2S         -0.08006  -0.01700  -0.02245  -0.49640   0.81004
  16        3S         -1.04316  -1.01635  -1.55501  -0.42692  -0.36527
  17 3   H  1S          0.02931  -0.02436  -0.01349  -0.03435  -0.07670
  18        2S          0.07776  -0.01897   0.01734  -0.42374  -0.76102
  19        3S          1.05176  -1.03647   1.59386  -0.49710   0.28238
  20 4   C  1S          0.00123   0.04198  -0.00023  -0.01887  -0.00011
  21        2S          0.00199   0.06839  -0.00037  -0.03011  -0.00006
  22        2PX         0.10236  -0.02367  -0.09941  -0.04249  -0.03116
  23        2PY        -0.06053  -0.03467   0.05713  -0.07790   0.01067
  24        2PZ         0.00025   0.00821  -0.00000   0.00531   0.00055
  25        3S         -0.00416  -0.15320   0.00025   0.02162  -0.00080
  26        3PX         0.14761  -0.01854  -0.11117  -0.08369  -0.11010
  27        3PY        -0.08632  -0.02335   0.06281  -0.15859   0.05266
  28        3PZ         0.00034   0.01129   0.00002   0.00804   0.00137
  29        4S         -0.04989  -1.30630   0.02896   3.55370   0.15044
  30        4PX         0.55557  -0.12450  -1.13092  -1.45812  -0.55376
  31        4PY        -0.33079  -0.17891   0.64237  -2.59117   0.04488
  32        4PZ         0.00161   0.05354  -0.00052   0.05319   0.00440
  33 5   H  1S          0.03171   0.02490   0.00769   0.02691  -0.07661
  34        2S          0.07235   0.02059  -0.03064   0.28615  -0.74288
  35        3S          1.08465   0.89831  -1.51213   0.46500   0.45645
  36 6   H  1S         -0.03132   0.02601  -0.00697   0.01825   0.08787
  37        2S         -0.07266   0.02277   0.03162   0.21074   0.89338
  38        3S         -1.01682   0.94535   1.48724   0.49478  -0.43049
                          16        17        18        19        20
                           V         V         V         V         V
     Eigenvalues --     0.39639   0.46351   0.48847   0.49343   0.59140
   1 1   C  1S         -0.01327   0.01198  -0.04722   0.00049  -0.00071
   2        2S         -0.02466   0.02807  -0.07933   0.00117  -0.00128
   3        2PX         0.01440  -0.06217   0.01388   0.00144   0.00273
   4        2PY         0.02814  -0.10595   0.01776   0.00225   0.00408
   5        2PZ        -0.00142  -0.00117   0.00335  -0.15140  -0.19283
   6        3S          0.08358  -0.33621   0.10394  -0.01385  -0.00031
   7        3PX         0.08142  -0.24526  -0.02266   0.00176   0.00910
   8        3PY         0.15795  -0.41620  -0.05160   0.00234   0.01401
   9        3PZ        -0.00843  -0.00702   0.01623  -0.62739  -0.68610
  10        4S          1.60736   0.03485   3.23082   0.06212   0.08708
  11        4PX        -0.30937   0.17532   0.74719   0.02279   0.02939
  12        4PY        -0.47160   0.34996   1.32498   0.04164   0.04673
  13        4PZ        -0.01568  -0.00160  -0.10052   0.68499   1.24238
  14 2   H  1S         -0.03381  -0.03671  -0.07766  -0.00174  -0.00219
  15        2S         -0.64375  -0.34708  -0.94166  -0.01324  -0.01528
  16        3S          0.12843   0.06933   0.62939   0.02658   0.02967
  17 3   H  1S         -0.04328  -0.04045  -0.07508  -0.00174  -0.00201
  18        2S         -0.73522  -0.39496  -0.92618  -0.01360  -0.01176
  19        3S          0.14726   0.07290   0.58664   0.02597   0.02900
  20 4   C  1S         -0.00836  -0.00200   0.05059   0.00287   0.00088
  21        2S         -0.01716   0.00443   0.08771   0.00524   0.00163
  22        2PX        -0.00450   0.05419   0.02472  -0.00048   0.00242
  23        2PY        -0.00394   0.09604   0.04714  -0.00082   0.00479
  24        2PZ        -0.00332  -0.00186   0.00363  -0.15275   0.19232
  25        3S          0.09098  -0.29157  -0.22141  -0.02190  -0.00271
  26        3PX        -0.07178   0.23176   0.04153  -0.00129   0.00862
  27        3PY        -0.11026   0.41175   0.08063  -0.00233   0.01653
  28        3PZ        -0.01137  -0.00826   0.01159  -0.63127   0.68240
  29        4S          0.32137   0.83868  -3.04131  -0.08698  -0.08045
  30        4PX         0.77104  -0.41587   0.67935   0.01174   0.02581
  31        4PY         1.44077  -0.68229   1.14528   0.01893   0.04827
  32        4PZ        -0.02749  -0.01692   0.05920   0.69511  -1.23859
  33 5   H  1S         -0.05115  -0.06207   0.06325   0.00171   0.00196
  34        2S         -0.84606  -0.62910   0.77961   0.02853   0.00829
  35        3S          0.02226   0.28193  -0.56536  -0.00352  -0.02894
  36 6   H  1S         -0.04039  -0.05920   0.06512   0.00183   0.00212
  37        2S         -0.73197  -0.58731   0.78395   0.02865   0.01099
  38        3S         -0.02773   0.28544  -0.59462  -0.00478  -0.02961
                          21        22        23        24        25
                           V         V         V         V         V
     Eigenvalues --     0.66482   0.69074   0.77232   0.77699   0.83854
   1 1   C  1S          0.00051  -0.00044   0.05728   0.06938   0.00095
   2        2S          0.00102  -0.00104   0.12101   0.14795   0.00201
   3        2PX        -0.11841   0.20617  -0.01548   0.11442  -0.01099
   4        2PY         0.06944  -0.12255  -0.02941   0.18937   0.00952
   5        2PZ         0.00000   0.00022   0.00131   0.00628   0.00021
   6        3S         -0.00689   0.01504  -0.83919  -1.29350  -0.01456
   7        3PX        -0.57020   0.73192  -0.13605   0.45359  -0.22668
   8        3PY         0.33214  -0.43350  -0.24889   0.74826   0.14285
   9        3PZ        -0.00007   0.00092   0.00472   0.02199   0.00103
  10        4S          0.00885  -0.09714   0.88697   2.46921  -0.12712
  11        4PX         1.11026  -0.83532   0.05911  -0.70493   4.36108
  12        4PY        -0.65274   0.47442   0.15509  -1.06288  -2.56900
  13        4PZ        -0.00001   0.00064   0.00665  -0.07203   0.00126
  14 2   H  1S          0.01819  -0.06008   0.01378   0.03067  -0.02571
  15        2S          0.06456  -0.64056   0.09846   0.07541  -1.50368
  16        3S         -0.98253   1.15863  -0.16585  -1.12404  -1.20054
  17 3   H  1S         -0.01793   0.05987   0.01355   0.03158   0.02728
  18        2S         -0.07123   0.67799   0.09424   0.07184   1.53568
  19        3S          0.97556  -1.14645  -0.18923  -1.21642   1.20596
  20 4   C  1S          0.00064  -0.00095   0.08618   0.02307   0.00089
  21        2S          0.00127  -0.00183   0.18332   0.04848   0.00197
  22        2PX        -0.16347  -0.17466  -0.09300   0.05969   0.01393
  23        2PY         0.09339   0.09851  -0.16362   0.10768  -0.00641
  24        2PZ        -0.00006  -0.00028   0.00611  -0.00173  -0.00018
  25        3S         -0.00836   0.00673  -1.51950  -0.23455  -0.01800
  26        3PX        -0.71879  -0.57499  -0.33544   0.30692   0.25609
  27        3PY         0.41187   0.32271  -0.58931   0.54865  -0.13562
  28        3PZ        -0.00030  -0.00100   0.02160  -0.00628  -0.00073
  29        4S          0.01155   0.05587   2.69599  -0.14553   0.11639
  30        4PX         1.24526   0.58458   0.53116  -0.31467  -4.29622
  31        4PY        -0.70906  -0.35806   0.91001  -0.67411   2.38274
  32        4PZ         0.00052   0.00006  -0.06254   0.03664  -0.00070
  33 5   H  1S         -0.03024  -0.05413   0.03489  -0.00092  -0.02282
  34        2S         -0.20906  -0.57952   0.07718   0.06024  -1.44162
  35        3S          1.16221   0.89877  -1.10356   0.36164  -1.13046
  36 6   H  1S          0.03038   0.05331   0.03481   0.00003   0.02404
  37        2S          0.20527   0.54927   0.06307   0.03381   1.43770
  38        3S         -1.16339  -0.88498  -1.09120   0.31794   1.12933
                          26        27        28        29        30
                           V         V         V         V         V
     Eigenvalues --     0.95501   2.23232   2.28843   2.33360   2.40568
   1 1   C  1S          0.09519  -0.01121  -0.01418  -0.00027  -0.00041
   2        2S          0.19774  -0.00043  -0.01515  -0.00077  -0.00036
   3        2PX        -0.09242  -0.09861  -0.13264  -0.32090  -0.41413
   4        2PY        -0.16038  -0.17743  -0.22726   0.18473   0.24181
   5        2PZ         0.00011  -0.01840  -0.02260   0.00028  -0.00053
   6        3S         -1.52764  -0.17829  -0.02230   0.00312  -0.00423
   7        3PX        -0.23859   0.10364   0.21165   0.38108   0.57519
   8        3PY        -0.40832   0.19798   0.37389  -0.22155  -0.34037
   9        3PZ        -0.00362   0.01861   0.02830  -0.00043   0.00060
  10        4S          5.71815  -0.15715  -0.90593   0.00057  -0.04430
  11        4PX         1.17731   0.05172  -0.19475  -0.01920   0.92772
  12        4PY         2.00066   0.06117  -0.34057   0.01639  -0.53518
  13        4PZ        -0.02226   0.00575   0.01055   0.00028   0.00103
  14 2   H  1S          0.01599  -0.74384  -0.74827   0.68634   0.68511
  15        2S         -0.29114   1.06709   1.13409  -1.02577  -1.48624
  16        3S         -0.07369  -0.31949  -0.44420   0.46826   0.40006
  17 3   H  1S          0.01586  -0.74118  -0.74872  -0.67275  -0.70284
  18        2S         -0.27600   1.06689   1.13276   1.00951   1.52296
  19        3S         -0.07298  -0.30032  -0.43815  -0.45668  -0.39580
  20 4   C  1S         -0.09452  -0.00956   0.01237  -0.00028   0.00017
  21        2S         -0.19622   0.00181   0.01186  -0.00045   0.00017
  22        2PX        -0.09339   0.11670  -0.12991  -0.32702   0.40899
  23        2PY        -0.16101   0.20647  -0.22325   0.18700  -0.22876
  24        2PZ         0.00033  -0.01745   0.02291  -0.00011   0.00017
  25        3S          1.51637  -0.17593   0.02597   0.00089   0.00032
  26        3PX        -0.23385  -0.14437   0.22027   0.41102  -0.57530
  27        3PY        -0.40699  -0.25357   0.37288  -0.23350   0.31977
  28        3PZ         0.00433   0.01856  -0.02925   0.00015  -0.00028
  29        4S         -5.69973  -0.12652   0.88252  -0.01156   0.02773
  30        4PX         1.14082  -0.02057  -0.19588  -0.05047  -0.87386
  31        4PY         2.00036  -0.04142  -0.33994   0.03061   0.48951
  32        4PZ         0.01699   0.00427  -0.00848   0.00017  -0.00065
  33 5   H  1S         -0.01775  -0.75791   0.72050  -0.72627   0.65530
  34        2S          0.28940   1.09203  -1.08994   1.08221  -1.41760
  35        3S          0.06201  -0.34017   0.43240  -0.51587   0.40568
  36 6   H  1S         -0.01790  -0.74658   0.73821   0.71933  -0.65396
  37        2S          0.30100   1.07352  -1.11780  -1.06880   1.41205
  38        3S          0.05693  -0.33632   0.44714   0.51382  -0.40700
                          31        32        33        34        35
                           V         V         V         V         V
     Eigenvalues --     2.67193   2.81677   2.88045   2.95056   3.14261
   1 1   C  1S          0.00067   0.00308  -0.01279   0.00011  -0.00894
   2        2S          0.00060   0.00924  -0.04454   0.00004  -0.02760
   3        2PX         0.00740   0.08872  -0.45137  -0.75481   0.46602
   4        2PY         0.01255   0.15402  -0.79860   0.41773   0.82687
   5        2PZ        -0.92181  -0.92614  -0.17547  -0.00119   0.01161
   6        3S         -0.00283  -0.07799   0.39964   0.00121   0.23407
   7        3PX        -0.00625  -0.15634   0.81937   0.90929  -0.46973
   8        3PY        -0.01090  -0.26993   1.43066  -0.49266  -0.83587
   9        3PZ         0.93578   1.13199   0.22062   0.00169  -0.01509
  10        4S          0.01836   0.17659  -0.87421  -0.00907  -0.44970
  11        4PX        -0.00172   0.12804  -0.71687  -0.67051   0.25510
  12        4PY        -0.00181   0.22106  -1.25742   0.35784   0.46093
  13        4PZ        -0.33645  -0.61158  -0.14083  -0.00136   0.01050
  14 2   H  1S          0.01524  -0.02812   0.27882  -0.38293  -0.23550
  15        2S         -0.01794   0.01993  -0.24394   0.38763   0.18048
  16        3S         -0.00327   0.04951  -0.29166   0.26927   0.08800
  17 3   H  1S          0.01526  -0.02669   0.26636   0.38803  -0.22712
  18        2S         -0.01807   0.01752  -0.22224  -0.38776   0.17058
  19        3S         -0.00399   0.05146  -0.29931  -0.28603   0.08630
  20 4   C  1S          0.00062  -0.00311   0.01359   0.00049  -0.00763
  21        2S          0.00053  -0.00955   0.04712   0.00123  -0.02467
  22        2PX        -0.00858   0.08321  -0.42354  -0.78175  -0.48774
  23        2PY        -0.01504   0.14963  -0.76585   0.44098  -0.85452
  24        2PZ        -0.92759   0.92001   0.17586   0.00073   0.01357
  25        3S         -0.00264   0.08181  -0.42307  -0.01033   0.21559
  26        3PX         0.00833  -0.14958   0.78267   0.92895   0.50487
  27        3PY         0.01437  -0.26641   1.39883  -0.51446   0.88934
  28        3PZ         0.94330  -1.12592  -0.22184  -0.00091  -0.01683
  29        4S          0.01823  -0.18047   0.90452   0.02674  -0.41682
  30        4PX        -0.00017   0.12513  -0.70839  -0.68989  -0.28981
  31        4PY        -0.00061   0.22168  -1.24916   0.37210  -0.51393
  32        4PZ        -0.34038   0.60910   0.14223   0.00058   0.01247
  33 5   H  1S          0.01505   0.03185  -0.28691   0.41062  -0.24396
  34        2S         -0.01823  -0.02466   0.25428  -0.42679   0.19021
  35        3S         -0.00214  -0.04882   0.28667  -0.24540   0.09981
  36 6   H  1S          0.01528   0.03290  -0.28817  -0.41575  -0.23984
  37        2S         -0.01891  -0.02647   0.26262   0.43163   0.18650
  38        3S         -0.00166  -0.04565   0.26905   0.24790   0.10108
                          36        37        38
                           V         V         V
     Eigenvalues --     3.31563  23.35162  23.70853
   1 1   C  1S         -0.00058  -1.41521  -1.45111
   2        2S         -0.00099   1.50920   1.56930
   3        2PX         0.76514  -0.00667   0.01189
   4        2PY        -0.43399  -0.01090   0.02107
   5        2PZ         0.00059  -0.00073  -0.00029
   6        3S          0.00461  -0.29540  -0.39982
   7        3PX        -1.09441   0.02491  -0.05572
   8        3PY         0.62152   0.04136  -0.09753
   9        3PZ        -0.00093   0.00206   0.00086
  10        4S         -0.04114   0.26970   0.77359
  11        4PX         1.90283  -0.02818   0.13150
  12        4PY        -1.09429  -0.04726   0.23057
  13        4PZ         0.00144  -0.00340  -0.00376
  14 2   H  1S          0.54082   0.01378   0.00668
  15        2S         -0.83632   0.00766  -0.01452
  16        3S         -0.45781  -0.08423  -0.03848
  17 3   H  1S         -0.55126   0.01539   0.00817
  18        2S          0.85013   0.00696  -0.01578
  19        3S          0.47335  -0.08593  -0.04012
  20 4   C  1S          0.00026  -1.44627   1.42005
  21        2S          0.00023   1.54254  -1.53590
  22        2PX        -0.73331   0.00569   0.01268
  23        2PY         0.41211   0.01019   0.02144
  24        2PZ        -0.00038  -0.00067   0.00019
  25        3S         -0.00012  -0.30313   0.39231
  26        3PX         1.04284  -0.02149  -0.05736
  27        3PY        -0.59017  -0.03809  -0.09817
  28        3PZ         0.00057   0.00194  -0.00050
  29        4S          0.01637   0.28383  -0.76436
  30        4PX        -1.82396   0.02157   0.13446
  31        4PY         1.02931   0.03986   0.22917
  32        4PZ        -0.00088  -0.00319   0.00297
  33 5   H  1S          0.50230   0.01250  -0.00471
  34        2S         -0.78091   0.00797   0.01388
  35        3S         -0.42482  -0.08275   0.03760
  36 6   H  1S         -0.50017   0.01154  -0.00357
  37        2S          0.77942   0.00929   0.01261
  38        3S          0.42417  -0.08180   0.03582
     Density Matrix:
                           1         2         3         4         5
   1 1   C  1S          0.65942
   2        2S          0.56157   0.49211
   3        2PX        -0.00063  -0.00086   0.08462
   4        2PY        -0.00143  -0.00201   0.00360   0.08798
   5        2PZ         0.00011   0.00018  -0.00015  -0.00031   0.06439
   6        3S         -0.08905  -0.15403   0.00309   0.00688  -0.00025
   7        3PX         0.00088   0.00135   0.13079   0.00134  -0.00009
   8        3PY         0.00120   0.00184   0.00128   0.13165  -0.00023
   9        3PZ         0.00023   0.00038  -0.00026  -0.00050   0.10355
  10        4S         -0.07930  -0.11416  -0.01451  -0.02620   0.00065
  11        4PX         0.00020   0.00145   0.07098  -0.00468  -0.00071
  12        4PY         0.00052   0.00282  -0.00468   0.06593  -0.00125
  13        4PZ        -0.00013  -0.00031  -0.00105  -0.00178   0.09570
  14 2   H  1S         -0.02051  -0.03266   0.03435  -0.06365  -0.00159
  15        2S         -0.02258  -0.03610   0.04931  -0.08807  -0.00117
  16        3S          0.00060  -0.00065   0.02142  -0.03308  -0.00005
  17 3   H  1S         -0.02094  -0.03331  -0.07308  -0.00215  -0.00168
  18        2S         -0.02281  -0.03644  -0.10105  -0.00139  -0.00127
  19        3S          0.00064  -0.00063  -0.03889   0.00200  -0.00008
  20 4   C  1S          0.00614   0.00989  -0.01084  -0.01865  -0.00054
  21        2S          0.00987   0.01541  -0.01735  -0.02983  -0.00088
  22        2PX         0.01048   0.01676  -0.01235  -0.03217   0.00056
  23        2PY         0.01837   0.02938  -0.03243  -0.04974   0.00105
  24        2PZ        -0.00061  -0.00099  -0.00053  -0.00086   0.06438
  25        3S         -0.02666  -0.04045   0.04865   0.08362   0.00263
  26        3PX         0.01622   0.02514  -0.01805  -0.04559   0.00073
  27        3PY         0.02838   0.04404  -0.04596  -0.07086   0.00138
  28        3PZ        -0.00103  -0.00166  -0.00092  -0.00150   0.10307
  29        4S          0.00528   0.00387   0.01979   0.03401   0.00320
  30        4PX         0.00312   0.00644  -0.01284  -0.02057   0.00086
  31        4PY         0.00537   0.01114  -0.02065  -0.03700   0.00163
  32        4PZ        -0.00088  -0.00142  -0.00139  -0.00231   0.09559
  33 5   H  1S          0.00423   0.00696  -0.00169  -0.01206  -0.00063
  34        2S          0.00653   0.01087   0.00337  -0.02480  -0.00008
  35        3S          0.00343   0.00506   0.00412  -0.01763   0.00011
  36 6   H  1S          0.00417   0.00686  -0.00973  -0.00763  -0.00064
  37        2S          0.00634   0.01055  -0.02336  -0.00948  -0.00010
  38        3S          0.00334   0.00490  -0.01738  -0.00518   0.00008
                           6         7         8         9        10
   6        3S          0.45300
   7        3PX        -0.00177   0.20247
   8        3PY        -0.00151  -0.00418   0.19752
   9        3PZ        -0.00076  -0.00018  -0.00036   0.16653
  10        4S          0.27290  -0.02509  -0.04585   0.00082   0.18063
  11        4PX        -0.00631   0.11023  -0.01037  -0.00115  -0.01423
  12        4PY        -0.01179  -0.01028   0.09938  -0.00200  -0.02739
  13        4PZ         0.00142  -0.00138  -0.00233   0.15390   0.00257
  14 2   H  1S          0.08725   0.05507  -0.09948  -0.00263   0.06855
  15        2S          0.09655   0.07938  -0.13719  -0.00197   0.07974
  16        3S          0.00587   0.03481  -0.05093  -0.00009   0.01053
  17 3   H  1S          0.08906  -0.11436  -0.00196  -0.00275   0.06812
  18        2S          0.09762  -0.15796   0.00042  -0.00209   0.07806
  19        3S          0.00601  -0.06053   0.00487  -0.00011   0.00958
  20 4   C  1S         -0.02674  -0.01683  -0.02901  -0.00092   0.00525
  21        2S         -0.04050  -0.02615  -0.04504  -0.00148   0.00391
  22        2PX        -0.04682  -0.01759  -0.04557   0.00098  -0.01856
  23        2PY        -0.08223  -0.04608  -0.07097   0.00180  -0.03293
  24        2PZ         0.00294  -0.00072  -0.00114   0.10353   0.00307
  25        3S          0.10347   0.07097   0.12218   0.00440   0.00149
  26        3PX        -0.06793  -0.02586  -0.06434   0.00128  -0.02783
  27        3PY        -0.11927  -0.06513  -0.10104   0.00240  -0.04932
  28        3PZ         0.00490  -0.00125  -0.00202   0.16575   0.00511
  29        4S          0.00182   0.02979   0.05139   0.00533  -0.03230
  30        4PX        -0.02274  -0.01919  -0.02883   0.00143  -0.00734
  31        4PY        -0.03945  -0.02909  -0.05354   0.00270  -0.01249
  32        4PZ         0.00417  -0.00193  -0.00319   0.15372   0.00470
  33 5   H  1S         -0.02076  -0.00078  -0.01753  -0.00092  -0.01600
  34        2S         -0.03252   0.00818  -0.03673  -0.00002  -0.02137
  35        3S         -0.01309   0.00786  -0.02656   0.00019  -0.00447
  36 6   H  1S         -0.02036  -0.01477  -0.00932  -0.00093  -0.01582
  37        2S         -0.03147  -0.03585  -0.01077  -0.00004  -0.02118
  38        3S         -0.01257  -0.02683  -0.00614   0.00016  -0.00453
                          11        12        13        14        15
  11        4PX         0.06110
  12        4PY        -0.00925   0.05155
  13        4PZ        -0.00170  -0.00290   0.14228
  14 2   H  1S          0.03354  -0.05467  -0.00135   0.08159
  15        2S          0.04900  -0.07536  -0.00046   0.10976   0.14991
  16        3S          0.02181  -0.02791   0.00026   0.03709   0.05304
  17 3   H  1S         -0.06373   0.00179  -0.00140  -0.01286  -0.02526
  18        2S         -0.08850   0.00497  -0.00050  -0.02515  -0.04472
  19        3S         -0.03428   0.00510   0.00026  -0.01867  -0.02863
  20 4   C  1S         -0.00309  -0.00549  -0.00080   0.00423   0.00649
  21        2S         -0.00642  -0.01135  -0.00129   0.00696   0.01082
  22        2PX        -0.01319  -0.02031   0.00137   0.00192  -0.00290
  23        2PY        -0.02050  -0.03681   0.00250   0.01171   0.02430
  24        2PZ        -0.00097  -0.00162   0.09570  -0.00070  -0.00014
  25        3S          0.02284   0.04022   0.00378  -0.02083  -0.03243
  26        3PX        -0.02026  -0.02851   0.00187   0.00083  -0.00796
  27        3PY        -0.02884  -0.05327   0.00343   0.01709   0.03603
  28        3PZ        -0.00159  -0.00267   0.15322  -0.00102  -0.00009
  29        4S          0.00705   0.01301   0.00489  -0.01654  -0.02204
  30        4PX        -0.01464  -0.01240   0.00173  -0.00178  -0.00885
  31        4PY        -0.01241  -0.02929   0.00322   0.01547   0.02723
  32        4PZ        -0.00192  -0.00324   0.14213  -0.00055   0.00048
  33 5   H  1S          0.00182  -0.01555  -0.00047   0.01128   0.02360
  34        2S          0.00889  -0.02737   0.00050   0.02382   0.04475
  35        3S          0.00743  -0.01586   0.00040   0.01667   0.02797
  36 6   H  1S         -0.01459  -0.00611  -0.00048  -0.00906  -0.01832
  37        2S         -0.02843  -0.00572   0.00049  -0.01882  -0.03457
  38        3S         -0.01743  -0.00134   0.00038  -0.01020  -0.01797
                          16        17        18        19        20
  16        3S          0.02146
  17 3   H  1S         -0.01893   0.08273
  18        2S         -0.02884   0.11016   0.14896
  19        3S         -0.01371   0.03666   0.05195   0.02077
  20 4   C  1S          0.00353   0.00430   0.00660   0.00357   0.65945
  21        2S          0.00517   0.00709   0.01101   0.00523   0.56152
  22        2PX        -0.00379   0.00912   0.02225   0.01660   0.00113
  23        2PY         0.01744   0.00752   0.00957   0.00539   0.00181
  24        2PZ         0.00007  -0.00070  -0.00010   0.00010   0.00010
  25        3S         -0.01329  -0.02123  -0.03301  -0.01347  -0.08908
  26        3PX        -0.00762   0.01441   0.03500   0.02600  -0.00051
  27        3PY         0.02620   0.00939   0.01125   0.00656  -0.00106
  28        3PZ         0.00014  -0.00101  -0.00003   0.00019   0.00023
  29        4S         -0.00486  -0.01665  -0.02201  -0.00476  -0.08016
  30        4PX        -0.00734   0.01393   0.02735   0.01692  -0.00024
  31        4PY         0.01582   0.00613   0.00579   0.00147  -0.00029
  32        4PZ         0.00038  -0.00055   0.00051   0.00041  -0.00006
  33 5   H  1S          0.01637  -0.00919  -0.01847  -0.00973  -0.02007
  34        2S          0.02776  -0.01890  -0.03451  -0.01740  -0.02230
  35        3S          0.01480  -0.01019  -0.01782  -0.00917   0.00053
  36 6   H  1S         -0.00976   0.01128   0.02334   0.01598  -0.01992
  37        2S         -0.01766   0.02396   0.04453   0.02723  -0.02237
  38        3S         -0.00937   0.01674   0.02785   0.01456   0.00044
                          21        22        23        24        25
  21        2S          0.49199
  22        2PX         0.00162   0.08248
  23        2PY         0.00257   0.00400   0.08764
  24        2PZ         0.00016   0.00019   0.00030   0.06442
  25        3S         -0.15398  -0.00525  -0.00845  -0.00021   0.45283
  26        3PX        -0.00077   0.12842   0.00194   0.00013  -0.00008
  27        3PY        -0.00162   0.00204   0.13112   0.00019   0.00071
  28        3PZ         0.00038   0.00029   0.00047   0.10314  -0.00077
  29        4S         -0.11574   0.01504   0.02550   0.00088   0.27789
  30        4PX        -0.00158   0.07223  -0.00497   0.00061   0.00674
  31        4PY        -0.00245  -0.00501   0.06637   0.00112   0.01069
  32        4PZ        -0.00019   0.00103   0.00183   0.09564   0.00102
  33 5   H  1S         -0.03198  -0.03366   0.06305  -0.00159   0.08552
  34        2S         -0.03566  -0.04964   0.08832  -0.00127   0.09544
  35        3S         -0.00073  -0.02221   0.03355  -0.00010   0.00598
  36 6   H  1S         -0.03177   0.07088   0.00291  -0.00152   0.08496
  37        2S         -0.03577   0.10089   0.00170  -0.00116   0.09564
  38        3S         -0.00083   0.04018  -0.00244  -0.00007   0.00614
                          26        27        28        29        30
  26        3PX         0.20032
  27        3PY        -0.00304   0.19675
  28        3PZ         0.00018   0.00027   0.16514
  29        4S          0.02707   0.04579   0.00111   0.18781
  30        4PX         0.11314  -0.01068   0.00096   0.01665   0.06497
  31        4PY        -0.01088   0.10013   0.00178   0.02704  -0.01030
  32        4PZ         0.00131   0.00236   0.15312   0.00267   0.00149
  33 5   H  1S         -0.05421   0.09876  -0.00264   0.06788  -0.03431
  34        2S         -0.08039   0.13783  -0.00213   0.07935  -0.05147
  35        3S         -0.03642   0.05167  -0.00017   0.01020  -0.02361
  36 6   H  1S          0.11207   0.00349  -0.00254   0.06848   0.06489
  37        2S          0.15936   0.00048  -0.00198   0.08085   0.09267
  38        3S          0.06317  -0.00548  -0.00012   0.01087   0.03701
                          31        32        33        34        35
  31        4PY         0.05255
  32        4PZ         0.00275   0.14202
  33 5   H  1S          0.05502  -0.00137   0.08040
  34        2S          0.07685  -0.00059   0.10988   0.15251
  35        3S          0.02888   0.00022   0.03795   0.05516   0.02272
  36 6   H  1S         -0.00181  -0.00133  -0.01260  -0.02571  -0.01948
  37        2S         -0.00574  -0.00052  -0.02585  -0.04728  -0.03080
  38        3S         -0.00594   0.00024  -0.01972  -0.03098  -0.01519
                          36        37        38
  36 6   H  1S          0.07974
  37        2S          0.10946   0.15257
  38        3S          0.03794   0.05534   0.02285
    Full Mulliken population analysis:
                           1         2         3         4         5
   1 1   C  1S          0.65942
   2        2S          0.49331   0.49211
   3        2PX         0.00000   0.00000   0.08462
   4        2PY         0.00000   0.00000   0.00000   0.08798
   5        2PZ         0.00000   0.00000   0.00000   0.00000   0.06439
   6        3S         -0.02931  -0.06451   0.00000   0.00000   0.00000
   7        3PX         0.00000   0.00000   0.08229   0.00000   0.00000
   8        3PY         0.00000   0.00000   0.00000   0.08282   0.00000
   9        3PZ         0.00000   0.00000   0.00000   0.00000   0.06515
  10        4S         -0.01219  -0.02137   0.00000   0.00000   0.00000
  11        4PX         0.00000   0.00000   0.01563   0.00000   0.00000
  12        4PY         0.00000   0.00000   0.00000   0.01452   0.00000
  13        4PZ         0.00000   0.00000   0.00000   0.00000   0.02108
  14 2   H  1S         -0.00023  -0.00033   0.00171   0.00581   0.00001
  15        2S         -0.00165  -0.00317   0.00412   0.01348   0.00001
  16        3S          0.00005  -0.00006   0.00068   0.00194   0.00000
  17 3   H  1S         -0.00025  -0.00037   0.00797   0.00001   0.00001
  18        2S         -0.00171  -0.00328   0.01785   0.00001   0.00001
  19        3S          0.00005  -0.00006   0.00259  -0.00000   0.00000
  20 4   C  1S          0.00000   0.00000  -0.00002  -0.00006   0.00000
  21        2S          0.00000  -0.00000  -0.00002  -0.00006   0.00000
  22        2PX        -0.00002  -0.00002   0.00011   0.00087   0.00000
  23        2PY        -0.00006  -0.00005   0.00088   0.00200   0.00000
  24        2PZ        -0.00000  -0.00000  -0.00000  -0.00000   0.00043
  25        3S         -0.00061  -0.00102   0.00256   0.00762  -0.00000
  26        3PX        -0.00055  -0.00102   0.00019   0.00555   0.00000
  27        3PY        -0.00168  -0.00309   0.00560   0.01068   0.00000
  28        3PZ        -0.00000  -0.00000  -0.00000  -0.00000   0.00619
  29        4S          0.00034   0.00029   0.00090   0.00268  -0.00000
  30        4PX        -0.00018  -0.00046  -0.00070   0.00142   0.00000
  31        4PY        -0.00054  -0.00137   0.00143   0.00094   0.00000
  32        4PZ        -0.00000  -0.00000  -0.00000  -0.00000   0.00903
  33 5   H  1S          0.00000   0.00000  -0.00000  -0.00000   0.00000
  34        2S          0.00001   0.00002   0.00000  -0.00033   0.00000
  35        3S          0.00008   0.00014   0.00001  -0.00072  -0.00000
  36 6   H  1S          0.00000   0.00000  -0.00000  -0.00000   0.00000
  37        2S          0.00001   0.00002  -0.00024  -0.00007   0.00000
  38        3S          0.00008   0.00013  -0.00058  -0.00012  -0.00000
                           6         7         8         9        10
   6        3S          0.45300
   7        3PX         0.00000   0.20247
   8        3PY         0.00000   0.00000   0.19752
   9        3PZ         0.00000   0.00000   0.00000   0.16653
  10        4S          0.21142   0.00000   0.00000   0.00000   0.18063
  11        4PX         0.00000   0.07203   0.00000   0.00000   0.00000
  12        4PY         0.00000   0.00000   0.06494   0.00000   0.00000
  13        4PZ         0.00000   0.00000   0.00000   0.10057   0.00000
  14 2   H  1S          0.01610   0.01008   0.03336   0.00004   0.01816
  15        2S          0.04074   0.01859   0.05884   0.00004   0.04602
  16        3S          0.00271   0.00388   0.01039   0.00000   0.00795
  17 3   H  1S          0.01693   0.04455   0.00002   0.00004   0.01825
  18        2S          0.04188   0.07767  -0.00000   0.00004   0.04544
  19        3S          0.00279   0.01403  -0.00003   0.00000   0.00727
  20 4   C  1S         -0.00061  -0.00058  -0.00172   0.00000   0.00033
  21        2S         -0.00102  -0.00106  -0.00316   0.00000   0.00030
  22        2PX         0.00247   0.00018   0.00555   0.00000   0.00084
  23        2PY         0.00750   0.00561   0.01070   0.00000   0.00259
  24        2PZ         0.00000  -0.00000  -0.00000   0.00622   0.00000
  25        3S          0.02223   0.01337   0.03986  -0.00000   0.00057
  26        3PX         0.01280  -0.00128   0.01841   0.00000   0.00429
  27        3PY         0.03891   0.01864   0.02836   0.00000   0.01318
  28        3PZ         0.00000  -0.00000  -0.00000   0.03561   0.00000
  29        4S          0.00069   0.00460   0.01373  -0.00000  -0.02032
  30        4PX         0.00639  -0.00396   0.00570   0.00000   0.00222
  31        4PY         0.01921   0.00575   0.00116   0.00000   0.00655
  32        4PZ         0.00000  -0.00000  -0.00000   0.04929   0.00000
  33 5   H  1S         -0.00006  -0.00000  -0.00020   0.00000  -0.00088
  34        2S         -0.00130   0.00005  -0.00333   0.00000  -0.00365
  35        3S         -0.00217   0.00009  -0.00432  -0.00000  -0.00163
  36 6   H  1S         -0.00005  -0.00013  -0.00006   0.00000  -0.00085
  37        2S         -0.00121  -0.00260  -0.00053   0.00000  -0.00355
  38        3S         -0.00205  -0.00358  -0.00056  -0.00000  -0.00163
                          11        12        13        14        15
  11        4PX         0.06110
  12        4PY         0.00000   0.05155
  13        4PZ         0.00000   0.00000   0.14228
  14 2   H  1S          0.00601   0.01796   0.00002   0.08159
  15        2S          0.01478   0.04165   0.00001   0.07753   0.14991
  16        3S          0.00515   0.01208  -0.00000   0.01386   0.04185
  17 3   H  1S          0.02387  -0.00002   0.00002  -0.00001  -0.00074
  18        2S          0.05562  -0.00007   0.00001  -0.00073  -0.00598
  19        3S          0.01682  -0.00006  -0.00000  -0.00216  -0.00861
  20 4   C  1S         -0.00018  -0.00055   0.00000   0.00000   0.00002
  21        2S         -0.00046  -0.00140   0.00000   0.00000   0.00003
  22        2PX        -0.00072   0.00141   0.00000  -0.00000   0.00000
  23        2PY         0.00142   0.00094   0.00000  -0.00000  -0.00034
  24        2PZ        -0.00000  -0.00000   0.00904   0.00000   0.00000
  25        3S          0.00642   0.01959  -0.00000  -0.00007  -0.00138
  26        3PX        -0.00418   0.00564   0.00000  -0.00000   0.00005
  27        3PY         0.00570   0.00116   0.00000  -0.00021  -0.00343
  28        3PZ        -0.00000  -0.00000   0.04913   0.00000   0.00000
  29        4S          0.00213   0.00683  -0.00000  -0.00094  -0.00388
  30        4PX        -0.00708   0.00313   0.00000   0.00002   0.00022
  31        4PY         0.00313  -0.00563   0.00000  -0.00241  -0.01012
  32        4PZ        -0.00000  -0.00000   0.08944   0.00000  -0.00000
  33 5   H  1S          0.00002  -0.00235   0.00000   0.00000   0.00000
  34        2S          0.00023  -0.00996  -0.00000   0.00000   0.00016
  35        3S          0.00025  -0.00737  -0.00000   0.00023   0.00146
  36 6   H  1S         -0.00179  -0.00051   0.00000  -0.00000  -0.00004
  37        2S         -0.00845  -0.00116  -0.00000  -0.00004  -0.00088
  38        3S         -0.00667  -0.00035  -0.00000  -0.00045  -0.00244
                          16        17        18        19        20
  16        3S          0.02146
  17 3   H  1S         -0.00219   0.08273
  18        2S         -0.00867   0.07782   0.14896
  19        3S         -0.00727   0.01370   0.04099   0.02077
  20 4   C  1S          0.00009   0.00000   0.00002   0.00009   0.65945
  21        2S          0.00015   0.00000   0.00003   0.00015   0.49327
  22        2PX         0.00001  -0.00000  -0.00027  -0.00058   0.00000
  23        2PY        -0.00072  -0.00000  -0.00008  -0.00013   0.00000
  24        2PZ        -0.00000   0.00000   0.00000  -0.00000   0.00000
  25        3S         -0.00226  -0.00007  -0.00144  -0.00232  -0.02932
  26        3PX         0.00009  -0.00016  -0.00283  -0.00360   0.00000
  27        3PY        -0.00434  -0.00007  -0.00061  -0.00061   0.00000
  28        3PZ        -0.00000   0.00000   0.00000  -0.00000   0.00000
  29        4S         -0.00180  -0.00097  -0.00393  -0.00178  -0.01233
  30        4PX         0.00023  -0.00183  -0.00853  -0.00662   0.00000
  31        4PY        -0.00742  -0.00054  -0.00122  -0.00039   0.00000
  32        4PZ        -0.00000   0.00000  -0.00000  -0.00000   0.00000
  33 5   H  1S          0.00023  -0.00000  -0.00004  -0.00045  -0.00021
  34        2S          0.00145  -0.00005  -0.00094  -0.00244  -0.00158
  35        3S          0.00249  -0.00047  -0.00250  -0.00294   0.00004
  36 6   H  1S         -0.00043   0.00000   0.00000   0.00022  -0.00020
  37        2S         -0.00240   0.00000   0.00015   0.00142  -0.00157
  38        3S         -0.00295   0.00023   0.00146   0.00244   0.00003
                          21        22        23        24        25
  21        2S          0.49199
  22        2PX         0.00000   0.08248
  23        2PY         0.00000   0.00000   0.08764
  24        2PZ         0.00000   0.00000   0.00000   0.06442
  25        3S         -0.06449   0.00000   0.00000   0.00000   0.45283
  26        3PX         0.00000   0.08079   0.00000   0.00000   0.00000
  27        3PY         0.00000   0.00000   0.08249   0.00000   0.00000
  28        3PZ         0.00000   0.00000   0.00000   0.06489   0.00000
  29        4S         -0.02166   0.00000   0.00000   0.00000   0.21528
  30        4PX         0.00000   0.01591   0.00000   0.00000   0.00000
  31        4PY         0.00000   0.00000   0.01462   0.00000   0.00000
  32        4PZ         0.00000   0.00000   0.00000   0.02106   0.00000
  33 5   H  1S         -0.00030   0.00154   0.00548   0.00001   0.01523
  34        2S         -0.00303   0.00397   0.01342   0.00001   0.03948
  35        3S         -0.00007   0.00069   0.00198   0.00000   0.00273
  36 6   H  1S         -0.00028   0.00676   0.00001   0.00001   0.01487
  37        2S         -0.00299   0.01717   0.00001   0.00001   0.03919
  38        3S         -0.00008   0.00268  -0.00001   0.00000   0.00280
                          26        27        28        29        30
  26        3PX         0.20032
  27        3PY         0.00000   0.19675
  28        3PZ         0.00000   0.00000   0.16514
  29        4S          0.00000   0.00000   0.00000   0.18781
  30        4PX         0.07393   0.00000   0.00000   0.00000   0.06497
  31        4PY         0.00000   0.06543   0.00000   0.00000   0.00000
  32        4PZ         0.00000   0.00000   0.10006   0.00000   0.00000
  33 5   H  1S          0.00942   0.03259   0.00004   0.01775   0.00597
  34        2S          0.01815   0.05912   0.00004   0.04533   0.01512
  35        3S          0.00396   0.01066   0.00000   0.00766   0.00545
  36 6   H  1S          0.04126   0.00007   0.00003   0.01779   0.02419
  37        2S          0.07683   0.00001   0.00003   0.04596   0.05840
  38        3S          0.01473  -0.00007   0.00000   0.00813   0.01838
                          31        32        33        34        35
  31        4PY         0.05255
  32        4PZ         0.00000   0.14202
  33 5   H  1S          0.01819   0.00002   0.08040
  34        2S          0.04288   0.00001   0.07762   0.15251
  35        3S          0.01268  -0.00000   0.01418   0.04352   0.02272
  36 6   H  1S         -0.00004   0.00002  -0.00001  -0.00072  -0.00222
  37        2S         -0.00019   0.00001  -0.00073  -0.00617  -0.00915
  38        3S         -0.00015  -0.00000  -0.00225  -0.00920  -0.00799
                          36        37        38
  36 6   H  1S          0.07974
  37        2S          0.07732   0.15257
  38        3S          0.01418   0.04366   0.02285
     Gross orbital populations:
                           1
   1 1   C  1S          1.10434
   2        2S          0.88586
   3        2PX         0.22758
   4        2PY         0.23699
   5        2PZ         0.16630
   6        3S          0.79348
   7        3PX         0.56068
   8        3PY         0.55747
   9        3PZ         0.42352
  10        4S          0.49997
  11        4PX         0.26081
  12        4PY         0.21194
  13        4PZ         0.41158
  14 2   H  1S          0.27490
  15        2S          0.46684
  16        3S          0.08621
  17 3   H  1S          0.27841
  18        2S          0.46510
  19        3S          0.08330
  20 4   C  1S          1.10441
  21        2S          0.88584
  22        2PX         0.22183
  23        2PY         0.23590
  24        2PZ         0.16609
  25        3S          0.79166
  26        3PX         0.55278
  27        3PY         0.55524
  28        3PZ         0.42116
  29        4S          0.51027
  30        4PX         0.27232
  31        4PY         0.21451
  32        4PZ         0.41095
  33 5   H  1S          0.27121
  34        2S          0.47041
  35        3S          0.08949
  36 6   H  1S          0.26914
  37        2S          0.47085
  38        3S          0.09068
          Condensed to atoms (all electrons):
               1          2          3          4          5          6
     1  C    5.036347   0.386919   0.387874   0.603205  -0.037343  -0.036485
     2  H    0.386919   0.519436  -0.036358  -0.038429   0.006019  -0.009638
     3  H    0.387874  -0.036358   0.517475  -0.038295  -0.009819   0.005934
     4  C    0.603205  -0.038429  -0.038295   5.048240   0.384412   0.383818
     5  H   -0.037343   0.006019  -0.009819   0.384412   0.526270  -0.038438
     6  H   -0.036485  -0.009638   0.005934   0.383818  -0.038438   0.525478
 Mulliken charges:
               1
     1  C   -0.340517
     2  H    0.172050
     3  H    0.173188
     4  C   -0.342952
     5  H    0.168899
     6  H    0.169332
 Sum of Mulliken charges =  -0.00000
 Mulliken charges with hydrogens summed into heavy atoms:
               1
     1  C    0.004721
     4  C   -0.004721
 Electronic spatial extent (au):  <R**2>=             83.6508
 Charge=             -0.0000 electrons
 Dipole moment (field-independent basis, Debye):
    X=             -0.0111    Y=              0.0006    Z=             -0.1353  Tot=              0.1358
 Quadrupole moment (field-independent basis, Debye-Ang):
   XX=            -12.2163   YY=            -12.2065   ZZ=            -15.6554
   XY=              0.0339   XZ=              0.0006   YZ=             -0.0009
 Traceless Quadrupole moment (field-independent basis, Debye-Ang):
   XX=              1.1431   YY=              1.1529   ZZ=             -2.2960
   XY=              0.0339   XZ=              0.0006   YZ=             -0.0009
 Octapole moment (field-independent basis, Debye-Ang**2):
  XXX=             -0.1677  YYY=             -0.1572  ZZZ=             -0.0470  XYY=              0.0081
  XXY=             -0.0203  XXZ=             -0.1721  XZZ=             -0.0784  YZZ=             -0.0785
  YYZ=             -0.2307  XYZ=             -0.0504
 Hexadecapole moment (field-independent basis, Debye-Ang**3):
 XXXX=            -34.2596 YYYY=            -55.1362 ZZZZ=            -17.7890 XXXY=             -7.2099
 XXXZ=              0.0101 YYYX=            -10.6646 YYYZ=              0.0201 ZZZX=              0.0169
 ZZZY=              0.0285 XXYY=            -16.1785 XXZZ=             -9.9083 YYZZ=            -13.6292
 XXYZ=              0.0048 YYXZ=              0.0026 ZZXY=             -3.1968
 N-N= 3.309852798287D+01 E-N=-2.479127797762D+02  KE= 7.815849974525D+01
 Orbital energies and kinetic energies (alpha):
                                 1                 2
   1         O               -10.290863         15.978976
   2         O               -10.286927         15.979045
   3         O                -0.864347          1.542638
   4         O                -0.672226          1.270317
   5         O                -0.558447          0.941733
   6         O                -0.510849          1.283888
   7         O                -0.435801          1.042730
   8         O                -0.357448          1.039923
   9         V                 0.080259          1.181264
  10         V                 0.141153          0.588460
  11         V                 0.164348          0.597877
  12         V                 0.170082          0.677677
  13         V                 0.241129          0.583260
  14         V                 0.379339          0.866721
  15         V                 0.391731          0.931001
  16         V                 0.396394          0.762164
  17         V                 0.463512          1.191466
  18         V                 0.488469          1.424925
  19         V                 0.493427          1.299930
  20         V                 0.591395          1.655226
  21         V                 0.664821          1.573845
  22         V                 0.690740          2.143358
  23         V                 0.772317          2.453967
  24         V                 0.776986          2.283365
  25         V                 0.838540          1.080333
  26         V                 0.955014          3.442290
  27         V                 2.232319          3.923675
  28         V                 2.288427          4.037521
  29         V                 2.333596          4.298296
  30         V                 2.405675          4.515367
  31         V                 2.671933          6.301917
  32         V                 2.816768          6.302632
  33         V                 2.880445          6.135771
  34         V                 2.950562          6.227318
  35         V                 3.142611          6.823093
  36         V                 3.315626          6.401139
  37         V                23.351618         60.073426
  38         V                23.708531         60.205915
 Total kinetic energy from orbitals= 7.815849974525D+01
 Calling FoFJK, ICntrl=      2127 FMM=F ISym2X=0 I1Cent= 0 IOpClX= 0 NMat=1 NMatS=1 NMatT=0.
 -------------------------------------------------------------------
 Center     Atomic                   Forces (Hartrees/Bohr)
 Number     Number              X              Y              Z
 -------------------------------------------------------------------
      1        6           0.008642176    0.001665887   -0.005542301
      2        1          -0.004791775    0.006445104    0.002822934
      3        1           0.000910539   -0.001172362    0.002578675
      4        6           0.008353538    0.010474100   -0.005978943
      5        1           0.005918433   -0.014206751    0.003004955
      6        1          -0.019032910   -0.003205979    0.003114680
 -------------------------------------------------------------------
 Cartesian Forces:  Max     0.019032910 RMS     0.007575027

 GradGradGradGradGradGradGradGradGradGradGradGradGradGradGradGradGradGrad
 Berny optimization.
 Search for a local minimum.
 Step number   1 out of a maximum of    2
 All quantities printed in internal units (Hartrees-Bohrs-Radians)
 Second derivative matrix not updated -- first step.
 The second derivative matrix:
                          X1        Y1        Z1        X2        Y2
           X1           0.75763
           Y1           0.10813   0.87168
           Z1           0.00812   0.01280   0.17639
           X2          -0.15837   0.09282   0.00291   0.13594
           Y2           0.10013  -0.29093  -0.01054  -0.11239   0.28034
           Z2           0.00457  -0.01320  -0.05703  -0.00411   0.01104
           X3          -0.35399  -0.00564  -0.01126  -0.00085  -0.00045
           Y3          -0.01269  -0.10962  -0.00275   0.03302   0.01793
           Z3          -0.01439  -0.00266  -0.05757   0.00206   0.00067
           X4          -0.26988  -0.18109  -0.00116   0.02331   0.01269
           Y4          -0.18172  -0.47913  -0.00195  -0.01346  -0.00733
           Z4           0.00169   0.00303  -0.09545  -0.00085  -0.00118
           X5           0.02322  -0.01341   0.00084  -0.00001   0.00001
           Y5           0.01219  -0.00704   0.00115   0.00001  -0.00000
           Z5          -0.00077   0.00046   0.01681   0.00037  -0.00020
           X6           0.00138  -0.00080   0.00055  -0.00001   0.00001
           Y6          -0.02605   0.01504   0.00128   0.00001  -0.00000
           Z6           0.00079  -0.00043   0.01685  -0.00037   0.00020
                          Z2        X3        Y3        Z3        X4
           Z2           0.02980
           X3          -0.00045   0.35421
           Y3           0.00214   0.00645   0.07622
           Z3           0.01056   0.01231   0.00198   0.03043
           X4           0.00070   0.00065  -0.02680  -0.00069   0.71542
           Y4          -0.00038  -0.00038   0.01548   0.00042   0.12032
           Z4           0.01669  -0.00060  -0.00137   0.01656  -0.00696
           X5          -0.00035  -0.00001   0.00001   0.00035  -0.14959
           Y5           0.00021   0.00001  -0.00001  -0.00021   0.09366
           Z5           0.00940   0.00037  -0.00022  -0.00950  -0.00427
           X6          -0.00035  -0.00001   0.00001   0.00036  -0.31991
           Y6           0.00019   0.00001  -0.00000  -0.00020  -0.01878
           Z6          -0.00943  -0.00037   0.00022   0.00952   0.01237
                          Y4        Z4        X5        Y5        Z5
           Y4           0.85734
           Z4          -0.01305   0.17502
           X5           0.08639  -0.00282   0.12812
           Y5          -0.28188   0.00993  -0.10498   0.27217
           Z5           0.01235  -0.05632   0.00384  -0.01053   0.02945
           X6          -0.01115   0.00954  -0.00173  -0.00089   0.00047
           Y6          -0.10448   0.00264   0.03198   0.01676  -0.00186
           Z6           0.00262  -0.05651  -0.00186  -0.00055   0.01015
                          X6        Y6        Z6
           X6           0.32028
           Y6           0.01282   0.07269
           Z6          -0.01056  -0.00206   0.02941
 ITU=  0
     Eigenvalues ---    0.03793   0.04387   0.09120   0.10233   0.13576
     Eigenvalues ---    0.17391   0.26667   0.28913   0.53073   0.69842
     Eigenvalues ---    0.97225   1.57874
 Angle between quadratic step and forces=  38.32 degrees.
 Linear search not attempted -- first point.
 B after Tr=     0.003147    0.003816   -0.013802
         Rot=    1.000000   -0.000026    0.000011   -0.000102 Ang=  -0.01 deg.
 Variable       Old X    -DE/DX   Delta X   Delta X   Delta X     New X
                                 (Linear)    (Quad)   (Total)
    X1       -0.63078   0.00864   0.00000   0.01191   0.01528  -0.61551
    Y1       -1.09315   0.00167   0.00000   0.01308   0.01677  -1.07637
    Z1        0.01492  -0.00554   0.00000  -0.02891  -0.04279  -0.02786
    X2        0.36016  -0.00479   0.00000  -0.00541  -0.00167   0.35850
    Y2       -2.90852   0.00645   0.00000   0.02771   0.03160  -2.87692
    Z2       -0.06229   0.00282   0.00000   0.03569   0.02175  -0.04054
    X3       -2.67771   0.00091   0.00000   0.01264   0.01602  -2.66169
    Y3       -1.14108  -0.00117   0.00000  -0.00345  -0.00017  -1.14125
    Z3       -0.06306   0.00258   0.00000   0.03477   0.02085  -0.04221
    X4        0.63067   0.00835   0.00000   0.00111   0.00403   0.63471
    Y4        1.09112   0.01047   0.00000   0.00273   0.00667   1.09779
    Z4        0.01234  -0.00598   0.00000  -0.02821  -0.04194  -0.02961
    X5       -0.34413   0.00592   0.00000   0.01624   0.01880  -0.32534
    Y5        2.94305  -0.01421   0.00000  -0.03986  -0.03611   2.90694
    Z5       -0.06553   0.00300   0.00000   0.03515   0.02149  -0.04404
    X6        2.73246  -0.01903   0.00000  -0.05537  -0.05246   2.68000
    Y6        1.20014  -0.00321   0.00000  -0.02313  -0.01876   1.18138
    Z6       -0.06448   0.00311   0.00000   0.03432   0.02064  -0.04384
         Item               Value     Threshold  Converged?
 Maximum Force            0.019033     0.000450     NO 
 RMS     Force            0.007575     0.000300     NO 
 Maximum Displacement     0.052460     0.001800     NO 
 RMS     Displacement     0.025799     0.001200     NO 
 Predicted change in Energy=-1.452424D-03
 GradGradGradGradGradGradGradGradGradGradGradGradGradGradGradGradGradGrad

 Unable to Open any file for archive entry.
 1\1\GINC-BHD0013\Force\RwB97XD\6-311G\C2H4\BWEIGHT\11-Jan-2023\0\\# WB
 97XD/6-311G SCF=XQC FORCE nosym pop=full guess=read\\MD Step 999\\0,1\
 C,-0.33379704,-0.57846768,0.00789662\H,0.19059042,-1.53912434,-0.03296
 286\H,-1.41698374,-0.60383143,-0.03337088\C,0.33373881,0.57739583,0.00
 652803\H,-0.18210825,1.55739693,-0.0346758\H,1.44595386,0.63508907,-0.
 03411939\\Version=ES64L-G16RevC.01\HF=-78.5560035\RMSD=7.138e-09\RMSF=
 7.575e-03\Dipole=-0.0043748,0.0002246,-0.0532367\Quadrupole=0.8498754,
 0.857151,-1.7070264,0.0251914,0.0004654,-0.0006836\PG=C01 [X(C2H4)]\\@
 The archive entry for this job was punched.


 TOWERING GENIUS DISDAINS A BEATEN PATH.  IT SEEKS 
 REGIONS HITHERTO UNEXPLORED.

                                -- ABRAHAM LINCOLN
 Job cpu time:       0 days  0 hours  0 minutes 53.5 seconds.
 Elapsed time:       0 days  0 hours  0 minutes 18.1 seconds.
 File lengths (MBytes):  RWF=    272 Int=      0 D2E=      0 Chk=     32 Scr=     32
 Normal termination of Gaussian 16 at Wed Jan 11 16:47:44 2023.
