 Entering Gaussian System, Link 0=g16
 Initial command:
 /software/gaussian/g16-c01/avx2/g16/l1.exe "/gpfs/fs2/scratch/bweight/software/many_molecule_many_mode_NAMD/src/NAMD/TEST_NVT/TRAJ/traj-49/G16/GS_NEW/Gau-5338.inp" -scrdir="/gpfs/fs2/scratch/bweight/software/many_molecule_many_mode_NAMD/src/NAMD/TEST_NVT/TRAJ/traj-49/G16/GS_NEW/"
 Entering Link 1 = /software/gaussian/g16-c01/avx2/g16/l1.exe PID=      5339.
  
 Copyright (c) 1988-2019, Gaussian, Inc.  All Rights Reserved.
  
 This is part of the Gaussian(R) 16 program.  It is based on
 the Gaussian(R) 09 system (copyright 2009, Gaussian, Inc.),
 the Gaussian(R) 03 system (copyright 2003, Gaussian, Inc.),
 the Gaussian(R) 98 system (copyright 1998, Gaussian, Inc.),
 the Gaussian(R) 94 system (copyright 1995, Gaussian, Inc.),
 the Gaussian 92(TM) system (copyright 1992, Gaussian, Inc.),
 the Gaussian 90(TM) system (copyright 1990, Gaussian, Inc.),
 the Gaussian 88(TM) system (copyright 1988, Gaussian, Inc.),
 the Gaussian 86(TM) system (copyright 1986, Carnegie Mellon
 University), and the Gaussian 82(TM) system (copyright 1983,
 Carnegie Mellon University). Gaussian is a federally registered
 trademark of Gaussian, Inc.
  
 This software contains proprietary and confidential information,
 including trade secrets, belonging to Gaussian, Inc.
  
 This software is provided under written license and may be
 used, copied, transmitted, or stored only in accord with that
 written license.
  
 The following legend is applicable only to US Government
 contracts under FAR:
  
                    RESTRICTED RIGHTS LEGEND
  
 Use, reproduction and disclosure by the US Government is
 subject to restrictions as set forth in subparagraphs (a)
 and (c) of the Commercial Computer Software - Restricted
 Rights clause in FAR 52.227-19.
  
 Gaussian, Inc.
 340 Quinnipiac St., Bldg. 40, Wallingford CT 06492
  
  
 ---------------------------------------------------------------
 Warning -- This program may not be used in any manner that
 competes with the business of Gaussian, Inc. or will provide
 assistance to any competitor of Gaussian, Inc.  The licensee
 of this program is prohibited from giving any competitor of
 Gaussian, Inc. access to this program.  By using this program,
 the user acknowledges that Gaussian, Inc. is engaged in the
 business of creating and licensing software in the field of
 computational chemistry and represents and warrants to the
 licensee that it is not a competitor of Gaussian, Inc. and that
 it will not use this program in any manner prohibited above.
 ---------------------------------------------------------------
  

 Cite this work as:
 Gaussian 16, Revision C.01,
 M. J. Frisch, G. W. Trucks, H. B. Schlegel, G. E. Scuseria, 
 M. A. Robb, J. R. Cheeseman, G. Scalmani, V. Barone, 
 G. A. Petersson, H. Nakatsuji, X. Li, M. Caricato, A. V. Marenich, 
 J. Bloino, B. G. Janesko, R. Gomperts, B. Mennucci, H. P. Hratchian, 
 J. V. Ortiz, A. F. Izmaylov, J. L. Sonnenberg, D. Williams-Young, 
 F. Ding, F. Lipparini, F. Egidi, J. Goings, B. Peng, A. Petrone, 
 T. Henderson, D. Ranasinghe, V. G. Zakrzewski, J. Gao, N. Rega, 
 G. Zheng, W. Liang, M. Hada, M. Ehara, K. Toyota, R. Fukuda, 
 J. Hasegawa, M. Ishida, T. Nakajima, Y. Honda, O. Kitao, H. Nakai, 
 T. Vreven, K. Throssell, J. A. Montgomery, Jr., J. E. Peralta, 
 F. Ogliaro, M. J. Bearpark, J. J. Heyd, E. N. Brothers, K. N. Kudin, 
 V. N. Staroverov, T. A. Keith, R. Kobayashi, J. Normand, 
 K. Raghavachari, A. P. Rendell, J. C. Burant, S. S. Iyengar, 
 J. Tomasi, M. Cossi, J. M. Millam, M. Klene, C. Adamo, R. Cammi, 
 J. W. Ochterski, R. L. Martin, K. Morokuma, O. Farkas, 
 J. B. Foresman, and D. J. Fox, Gaussian, Inc., Wallingford CT, 2019.
 
 ******************************************
 Gaussian 16:  ES64L-G16RevC.01  3-Jul-2019
                11-Jan-2023 
 ******************************************
 %oldchk=../GS_OLD/geometry.chk
 %chk=geometry.chk
 %nprocshared=4
 Will use up to    4 processors via shared memory.
 %mem=5GB
 Copying data from "../GS_OLD/geometry.chk" to current chk file "geometry.chk"
 IOpt=  2 FromEx=T IUOpen= 4 IOptOp= 5 NList=   0 IFRang= 0 IUIn= 4 IUOut= 2.
 -------------------------------------------------------
 # WB97XD/6-311G SCF=XQC FORCE nosym pop=full guess=read
 -------------------------------------------------------
 1/10=7,30=1,38=1/1,3;
 2/12=2,15=1,17=6,18=5,40=1/2;
 3/5=4,6=6,11=2,25=1,30=1,71=1,74=-58,116=-2/1,2,3;
 4/5=1/1;
 5/5=2,8=3,13=1,38=6/2,8;
 6/7=3,28=1/1;
 7/29=1,30=1/1,2,3,16;
 1/10=7,30=1/3;
 99//99;
 ------------
 MD Step 1000
 ------------
 Symbolic Z-matrix:
 Charge =  0 Multiplicity = 1
 C                    -0.33731  -0.58299   0.0048 
 H                     0.23158  -1.52613  -0.01306 
 H                    -1.42504  -0.57716  -0.01434 
 C                     0.33243   0.57686   0.0036 
 H                    -0.14583   1.55962  -0.01825 
 H                     1.43486   0.65417  -0.01699 
 

 GradGradGradGradGradGradGradGradGradGradGradGradGradGradGradGradGradGrad
 Berny optimization.
 Initialization pass.
 Trust Radius=3.00D-01 FncErr=1.00D-07 GrdErr=1.00D-07 EigMax=2.50D+02 EigMin=1.00D-04
 Number of steps in this run=      2 maximum allowed number of steps=      2.
 GradGradGradGradGradGradGradGradGradGradGradGradGradGradGradGradGradGrad

                          Input orientation:                          
 ---------------------------------------------------------------------
 Center     Atomic      Atomic             Coordinates (Angstroms)
 Number     Number       Type             X           Y           Z
 ---------------------------------------------------------------------
      1          6           0       -0.337310   -0.582989    0.004803
      2          1           0        0.231582   -1.526133   -0.013064
      3          1           0       -1.425037   -0.577157   -0.014345
      4          6           0        0.332433    0.576858    0.003598
      5          1           0       -0.145835    1.559624   -0.018252
      6          1           0        1.434862    0.654174   -0.016987
 ---------------------------------------------------------------------
                    Distance matrix (angstroms):
                    1          2          3          4          5
     1  C    0.000000
     2  H    1.101580   0.000000
     3  H    1.087911   1.909174   0.000000
     4  C    1.339328   2.105473   2.102563   0.000000
     5  H    2.151274   3.108756   2.490423   1.093181   0.000000
     6  H    2.161397   2.490308   3.113712   1.105329   1.821659
                    6
     6  H    0.000000
 Symmetry turned off by external request.
 Stoichiometry    C2H4
 Framework group  C1[X(C2H4)]
 Deg. of freedom    12
 Full point group                 C1      NOp   1
 Rotational constants (GHZ):         143.9636116          29.6964520          24.6215154
 Standard basis: 6-311G (5D, 7F)
    38 basis functions,    72 primitive gaussians,    38 cartesian basis functions
     8 alpha electrons        8 beta electrons
       nuclear repulsion energy        33.0973386348 Hartrees.
 NAtoms=    6 NActive=    6 NUniq=    6 SFac= 1.00D+00 NAtFMM=   60 NAOKFM=F Big=F
 Integral buffers will be    131072 words long.
 Raffenetti 2 integral format.
 Two-electron integral symmetry is turned off.
 Nuclear repulsion after empirical dispersion term =       33.0964973361 Hartrees.
 One-electron integrals computed using PRISM.
 NBasis=    38 RedAO= T EigKep=  6.45D-03  NBF=    38
 NBsUse=    38 1.00D-06 EigRej= -1.00D+00 NBFU=    38
 Initial guess from the checkpoint file:  "geometry.chk"
 B after Tr=    -0.000275   -0.000388   -0.000604
         Rot=    1.000000    0.000008   -0.000003    0.000005 Ang=   0.00 deg.
 Keep R1 ints in memory in canonical form, NReq=4036876.
 Requested convergence on RMS density matrix=1.00D-08 within  32 cycles.
 Requested convergence on MAX density matrix=1.00D-06.
 Requested convergence on             energy=1.00D-06.
 No special actions if energy rises.
 SCF Done:  E(RwB97XD) =  -78.5556523035     A.U. after    8 cycles
            NFock=  8  Conv=0.54D-08     -V/T= 2.0050
 QCSCF skips out because SCF is already converged.

 **********************************************************************

            Population analysis using the SCF Density.

 **********************************************************************

 Alpha  occ. eigenvalues --  -10.28917 -10.28801  -0.86380  -0.67332  -0.56012
 Alpha  occ. eigenvalues --   -0.50895  -0.43722  -0.35657
 Alpha virt. eigenvalues --    0.07974   0.14117   0.16545   0.17061   0.24099
 Alpha virt. eigenvalues --    0.37015   0.39474   0.40174   0.46549   0.48947
 Alpha virt. eigenvalues --    0.49402   0.59108   0.66635   0.69289   0.77459
 Alpha virt. eigenvalues --    0.77465   0.84479   0.95107   2.23095   2.29182
 Alpha virt. eigenvalues --    2.33271   2.40847   2.67115   2.81844   2.87748
 Alpha virt. eigenvalues --    2.95194   3.14170   3.32280  23.35404  23.70560
     Molecular Orbital Coefficients:
                           1         2         3         4         5
                           O         O         O         O         O
     Eigenvalues --   -10.28917 -10.28801  -0.86380  -0.67332  -0.56012
   1 1   C  1S          0.51273  -0.23352  -0.08793   0.06734  -0.00031
   2        2S          0.42207  -0.19201  -0.13899   0.10781  -0.00051
   3        2PX         0.00008   0.00014   0.02601   0.03442   0.13862
   4        2PY         0.00015   0.00023   0.04660   0.05608  -0.07268
   5        2PZ        -0.00000   0.00000  -0.00078   0.00105   0.00021
   6        3S          0.01291  -0.00684   0.37293  -0.29421   0.00140
   7        3PX         0.00001  -0.00074   0.03471   0.05552   0.21742
   8        3PY         0.00005  -0.00129   0.06174   0.09166  -0.11507
   9        3PZ        -0.00002   0.00000  -0.00130   0.00191   0.00031
  10        4S         -0.01018   0.01102   0.19166  -0.22578   0.00053
  11        4PX        -0.00044   0.00211   0.00498   0.02229   0.11235
  12        4PY        -0.00076   0.00362   0.00893   0.03826  -0.06045
  13        4PZ         0.00004  -0.00003  -0.00046   0.00098   0.00015
  14 2   H  1S         -0.00007  -0.00000   0.05202  -0.08558   0.10223
  15        2S         -0.00008  -0.00031   0.05354  -0.10386   0.12958
  16        3S          0.00184  -0.00028  -0.00187  -0.01457   0.04167
  17 3   H  1S         -0.00008  -0.00000   0.05355  -0.08949  -0.10651
  18        2S         -0.00010  -0.00029   0.05451  -0.10761  -0.13389
  19        3S          0.00188  -0.00028  -0.00191  -0.01558  -0.04295
  20 4   C  1S          0.23335   0.51281  -0.08724  -0.06785  -0.00033
  21        2S          0.19224   0.42198  -0.13775  -0.10882  -0.00052
  22        2PX        -0.00014   0.00009  -0.02713   0.03924   0.11718
  23        2PY        -0.00025   0.00016  -0.04551   0.07089  -0.07480
  24        2PZ         0.00000  -0.00000  -0.00070  -0.00146   0.00021
  25        3S          0.00521   0.01356   0.36885   0.29741   0.00139
  26        3PX         0.00048  -0.00058  -0.03379   0.06327   0.18308
  27        3PY         0.00086  -0.00098  -0.05668   0.11334  -0.11559
  28        3PZ        -0.00002  -0.00002  -0.00121  -0.00258   0.00032
  29        4S         -0.00013  -0.01488   0.18887   0.23496   0.00021
  30        4PX        -0.00107   0.00178  -0.00524   0.02772   0.10058
  31        4PY        -0.00191   0.00308  -0.00878   0.04815  -0.06266
  32        4PZ         0.00002   0.00004  -0.00048  -0.00129   0.00017
  33 5   H  1S         -0.00008  -0.00004   0.05118   0.09618  -0.09003
  34        2S         -0.00027   0.00017   0.05183   0.11325  -0.11244
  35        3S          0.00117   0.00143  -0.00089   0.01708  -0.03596
  36 6   H  1S         -0.00007  -0.00003   0.04968   0.09325   0.08501
  37        2S         -0.00028   0.00017   0.05095   0.11065   0.10697
  38        3S          0.00113   0.00139  -0.00095   0.01632   0.03458
                           6         7         8         9        10
                           O         O         O         V         V
     Eigenvalues --    -0.50895  -0.43722  -0.35657   0.07974   0.14117
   1 1   C  1S         -0.00219   0.00029  -0.00057   0.00167  -0.03504
   2        2S         -0.00309   0.00050  -0.00093   0.00277  -0.05627
   3        2PX         0.09415  -0.11004  -0.00212   0.00088  -0.03106
   4        2PY         0.16993   0.06541  -0.00348   0.00133  -0.06628
   5        2PZ         0.00307  -0.00005   0.17947  -0.18926  -0.00168
   6        3S          0.01419  -0.00122   0.00268  -0.00841   0.12324
   7        3PX         0.13633  -0.17595  -0.00299   0.00133  -0.03590
   8        3PY         0.24815   0.10511  -0.00488   0.00199  -0.08150
   9        3PZ         0.00487  -0.00006   0.28842  -0.27811  -0.00269
  10        4S         -0.06151  -0.00395   0.00446  -0.00914   1.26580
  11        4PX         0.06822  -0.10940  -0.00238   0.00786  -0.18694
  12        4PY         0.12578   0.06618  -0.00386   0.01265  -0.38630
  13        4PZ         0.00274  -0.00000   0.26712  -0.69505  -0.00916
  14 2   H  1S         -0.08247  -0.11448   0.00012   0.00255  -0.01962
  15        2S         -0.11504  -0.17683   0.00119   0.00397  -0.05153
  16        3S         -0.04301  -0.08164   0.00077   0.01111  -0.86605
  17 3   H  1S         -0.07970   0.11180   0.00008   0.00256  -0.01503
  18        2S         -0.11048   0.17176   0.00114   0.00406  -0.04012
  19        3S         -0.04093   0.07911   0.00075   0.01098  -0.78734
  20 4   C  1S         -0.00997  -0.00056  -0.00056  -0.00164  -0.03463
  21        2S         -0.01572  -0.00094  -0.00091  -0.00271  -0.05559
  22        2PX        -0.09834   0.12633   0.00205   0.00107   0.04067
  23        2PY        -0.16056  -0.07449   0.00388   0.00206   0.05869
  24        2PZ         0.00343   0.00019   0.17899   0.18936  -0.00170
  25        3S          0.04950   0.00267   0.00271   0.00812   0.12211
  26        3PX        -0.14600   0.20120   0.00287   0.00165   0.05041
  27        3PY        -0.23638  -0.11775   0.00549   0.00319   0.06962
  28        3PZ         0.00541   0.00027   0.28681   0.27820  -0.00257
  29        4S         -0.01846   0.00401   0.00389   0.00929   1.20794
  30        4PX        -0.07681   0.12860   0.00228   0.00800   0.26893
  31        4PY        -0.12291  -0.07424   0.00445   0.01479   0.41006
  32        4PZ         0.00316   0.00016   0.26788   0.69589  -0.01090
  33 5   H  1S         -0.07264  -0.12559   0.00012  -0.00255  -0.00911
  34        2S         -0.09805  -0.19430   0.00140  -0.00428  -0.03392
  35        3S         -0.03655  -0.09113   0.00074  -0.01038  -0.79390
  36 6   H  1S         -0.07898   0.12559   0.00007  -0.00255  -0.01357
  37        2S         -0.10731   0.19555   0.00133  -0.00429  -0.04472
  38        3S         -0.04030   0.09179   0.00068  -0.01062  -0.87112
                          11        12        13        14        15
                           V         V         V         V         V
     Eigenvalues --     0.16545   0.17061   0.24099   0.37015   0.39474
   1 1   C  1S          0.00215  -0.04464  -0.00004   0.00793   0.00110
   2        2S          0.00347  -0.07278  -0.00006   0.01032   0.00177
   3        2PX         0.09902  -0.01711  -0.09871  -0.03475  -0.02421
   4        2PY        -0.05326  -0.03629   0.05653  -0.06349   0.00945
   5        2PZ         0.00021  -0.00393  -0.00005  -0.00266  -0.00012
   6        3S         -0.00761   0.16524  -0.00027   0.03587  -0.00166
   7        3PX         0.14078  -0.00772  -0.10361  -0.04090  -0.10764
   8        3PY        -0.07758  -0.02362   0.06041  -0.07835   0.04809
   9        3PZ         0.00029  -0.00542  -0.00002  -0.00541  -0.00017
  10        4S         -0.08778   1.39246   0.01815  -2.35018  -0.19230
  11        4PX         0.60151  -0.09991  -1.16856  -1.49679  -0.52542
  12        4PY        -0.31495  -0.19745   0.66571  -2.60215   0.13469
  13        4PZ         0.00133  -0.02593  -0.00098  -0.02483  -0.00175
  14 2   H  1S         -0.02805  -0.02637  -0.01380  -0.06343   0.07513
  15        2S         -0.07943  -0.01919   0.02742  -0.70446   0.76593
  16        3S         -1.02074  -0.99427   1.52259  -0.24362  -0.32304
  17 3   H  1S          0.02836  -0.02520   0.01624  -0.05701  -0.07570
  18        2S          0.07930  -0.02096  -0.02074  -0.65639  -0.75552
  19        3S          1.13590  -0.96701  -1.55296  -0.32252   0.24526
  20 4   C  1S          0.00082   0.04310   0.00011  -0.01973   0.00000
  21        2S          0.00129   0.07013   0.00019  -0.03263   0.00019
  22        2PX         0.09926  -0.02310   0.10101  -0.03926  -0.03106
  23        2PY        -0.06004  -0.03987  -0.05785  -0.06948   0.01327
  24        2PZ         0.00010   0.00413   0.00005   0.00201   0.00023
  25        3S         -0.00228  -0.15454  -0.00039   0.04722  -0.00476
  26        3PX         0.14216  -0.01784   0.11517  -0.09228  -0.10906
  27        3PY        -0.08514  -0.02978  -0.06446  -0.16490   0.05849
  28        3PZ         0.00013   0.00571   0.00003   0.00247   0.00045
  29        4S         -0.05106  -1.38982  -0.01490   3.13385   0.16539
  30        4PX         0.52547  -0.12004   1.13064  -1.05706  -0.59515
  31        4PY        -0.32679  -0.21986  -0.65859  -1.85225   0.11120
  32        4PZ         0.00065   0.02694   0.00103   0.01947   0.00150
  33 5   H  1S          0.03009   0.02384  -0.00642   0.00404  -0.08115
  34        2S          0.06496   0.02105   0.03374  -0.01054  -0.79827
  35        3S          1.07036   0.99078   1.56298   0.44127   0.45988
  36 6   H  1S         -0.03136   0.02397   0.00454   0.00038   0.08854
  37        2S         -0.06673   0.01727  -0.03578  -0.04287   0.90670
  38        3S         -1.00320   0.96485  -1.54033   0.44479  -0.44159
                          16        17        18        19        20
                           V         V         V         V         V
     Eigenvalues --     0.40174   0.46549   0.48947   0.49402   0.59108
   1 1   C  1S         -0.02032  -0.00971   0.04700  -0.00020  -0.00038
   2        2S         -0.03532  -0.02439   0.07902  -0.00017  -0.00068
   3        2PX         0.03123   0.05991  -0.01519   0.00074   0.00132
   4        2PY         0.05786   0.10446  -0.02019   0.00091   0.00185
   5        2PZ         0.00038   0.00013  -0.00311  -0.15233  -0.19223
   6        3S          0.07616   0.33227  -0.11181  -0.00516  -0.00005
   7        3PX         0.10985   0.24033   0.02321   0.00035   0.00443
   8        3PY         0.20983   0.41637   0.05264  -0.00066   0.00621
   9        3PZ        -0.00214   0.00224  -0.01443  -0.62968  -0.68362
  10        4S          3.00919  -0.38879  -3.00485   0.04630   0.04308
  11        4PX         0.40715  -0.31172  -0.81670   0.01520   0.01307
  12        4PY         0.74969  -0.57398  -1.41139   0.02791   0.02391
  13        4PZ         0.00248  -0.00028   0.05388   0.68851   1.23920
  14 2   H  1S         -0.02199   0.03665   0.07362  -0.00157  -0.00102
  15        2S         -0.48742   0.36456   0.87039  -0.01439  -0.00794
  16        3S          0.36417  -0.11601  -0.64609   0.01726   0.01440
  17 3   H  1S         -0.03108   0.03907   0.07104  -0.00151  -0.00098
  18        2S         -0.56902   0.39110   0.83647  -0.01397  -0.00705
  19        3S          0.38608  -0.11628  -0.61066   0.01658   0.01401
  20 4   C  1S          0.00240  -0.00015  -0.05069   0.00185   0.00040
  21        2S          0.00028  -0.00793  -0.08791   0.00336   0.00075
  22        2PX         0.01120  -0.05646  -0.02472  -0.00008   0.00124
  23        2PY         0.02176  -0.09674  -0.04595  -0.00030   0.00254
  24        2PZ        -0.00263   0.00127  -0.00317  -0.15238   0.19234
  25        3S          0.07543   0.29767   0.21394  -0.01299  -0.00117
  26        3PX        -0.03916  -0.23824  -0.04654  -0.00026   0.00434
  27        3PY        -0.05459  -0.41371  -0.08352  -0.00132   0.00885
  28        3PZ        -0.00725   0.00506  -0.01193  -0.63087   0.68340
  29        4S         -1.22832  -0.56106   3.18951  -0.06440  -0.03827
  30        4PX         1.39146   0.25547  -0.58818   0.00577   0.01369
  31        4PY         2.52152   0.41185  -0.99257   0.00984   0.02211
  32        4PZ        -0.02411   0.01094  -0.02464   0.69119  -1.23825
  33 5   H  1S         -0.04359   0.06143  -0.06748   0.00151   0.00099
  34        2S         -0.83082   0.64262  -0.87272   0.02333   0.00382
  35        3S         -0.29512  -0.21014   0.52751  -0.00390  -0.01421
  36 6   H  1S         -0.03471   0.06015  -0.06741   0.00153   0.00101
  37        2S         -0.72556   0.62476  -0.86689   0.02313   0.00410
  38        3S         -0.31006  -0.23169   0.55409  -0.00489  -0.01439
                          21        22        23        24        25
                           V         V         V         V         V
     Eigenvalues --     0.66635   0.69289   0.77459   0.77465   0.84479
   1 1   C  1S          0.00106   0.00032   0.03783   0.08009   0.00071
   2        2S          0.00220   0.00075   0.08113   0.16991   0.00172
   3        2PX        -0.14816  -0.18649   0.11254   0.03397  -0.00679
   4        2PY         0.08667   0.11303   0.18217   0.05387   0.01422
   5        2PZ        -0.00011  -0.00018   0.00224   0.00171   0.00010
   6        3S         -0.01799  -0.01333  -0.80344  -1.29486  -0.02173
   7        3PX        -0.66668  -0.64263   0.47604   0.06714  -0.22337
   8        3PY         0.38551   0.39096   0.76364   0.09304   0.17061
   9        3PZ        -0.00056  -0.00067   0.00772   0.00617   0.00025
  10        4S          0.03177   0.06743   1.74184   1.86130  -0.01171
  11        4PX         1.09125   0.74019  -0.77023  -0.20696   4.56686
  12        4PY        -0.63379  -0.45933  -0.95225  -0.31618  -2.60338
  13        4PZ         0.00059  -0.00050  -0.03085  -0.01111   0.00431
  14 2   H  1S          0.02899   0.05632   0.02382   0.02492  -0.02749
  15        2S          0.20276   0.59824   0.04899   0.09763  -1.59994
  16        3S         -1.11112  -1.02874  -0.88526  -0.62809  -1.23282
  17 3   H  1S         -0.02804  -0.05590   0.02455   0.02524   0.03144
  18        2S         -0.22102  -0.63205  -0.00710   0.11483   1.64375
  19        3S          1.09671   0.98817  -1.04818  -0.67848   1.23482
  20 4   C  1S          0.00130   0.00003  -0.01457   0.08924   0.00045
  21        2S          0.00264  -0.00001  -0.03179   0.18956   0.00081
  22        2PX        -0.13625   0.19731   0.09307  -0.05678   0.00735
  23        2PY         0.07812  -0.10840   0.17149  -0.10410   0.00564
  24        2PZ        -0.00009   0.00019  -0.00228   0.00257  -0.00013
  25        3S         -0.01904   0.00754   0.41406  -1.49236   0.00020
  26        3PX        -0.63538   0.68815   0.41420  -0.16215   0.21672
  27        3PY         0.36785  -0.37581   0.76568  -0.30552  -0.07766
  28        3PZ        -0.00049   0.00067  -0.00833   0.00889  -0.00035
  29        4S          0.01385  -0.05935  -1.22385   2.37484  -0.01096
  30        4PX         1.27060  -0.90397  -0.45014   0.31097  -4.13476
  31        4PY        -0.73131   0.48421  -1.12918   0.56924   2.36287
  32        4PZ         0.00103   0.00044   0.03098  -0.02111  -0.00371
  33 5   H  1S         -0.02039   0.05635  -0.01408   0.03112  -0.02430
  34        2S         -0.08935   0.56598   0.02647   0.11990  -1.41764
  35        3S          1.05900  -1.08481   0.86620  -0.88754  -1.09582
  36 6   H  1S          0.02126  -0.05662  -0.01319   0.03085   0.02348
  37        2S          0.08331  -0.52836  -0.03477   0.09562   1.39276
  38        3S         -1.06144   1.11847   0.73431  -0.83527   1.11041
                          26        27        28        29        30
                           V         V         V         V         V
     Eigenvalues --     0.95107   2.23095   2.29182   2.33271   2.40847
   1 1   C  1S          0.09609  -0.00945  -0.01444   0.00041   0.00051
   2        2S          0.19972   0.00261  -0.01370   0.00090   0.00059
   3        2PX        -0.09093  -0.07005  -0.13237   0.35927   0.40233
   4        2PY        -0.15761  -0.13415  -0.23083  -0.20435  -0.22657
   5        2PZ         0.00011  -0.00737  -0.01109   0.00015   0.00065
   6        3S         -1.54920  -0.18837  -0.04495  -0.00105   0.00504
   7        3PX        -0.23238   0.06365   0.20694  -0.43541  -0.56226
   8        3PY        -0.39358   0.13707   0.37723   0.25031   0.31828
   9        3PZ        -0.00143   0.00730   0.01383  -0.00011  -0.00078
  10        4S          5.70923  -0.08140  -0.87236  -0.00046   0.01731
  11        4PX         1.21635   0.05402  -0.18719  -0.09117  -1.00017
  12        4PY         1.98225   0.06949  -0.36264   0.04033   0.54937
  13        4PZ        -0.01153   0.00101   0.00496  -0.00023  -0.00143
  14 2   H  1S          0.01536  -0.68916  -0.81495  -0.72731  -0.62578
  15        2S         -0.29166   0.97401   1.21455   1.14127   1.42802
  16        3S         -0.10312  -0.29640  -0.48882  -0.47676  -0.34727
  17 3   H  1S          0.01585  -0.67959  -0.81314   0.71698   0.65029
  18        2S         -0.25193   0.96170   1.21786  -1.13032  -1.47908
  19        3S         -0.07751  -0.27316  -0.46872   0.46311   0.33824
  20 4   C  1S         -0.09370  -0.01157   0.01271   0.00060  -0.00042
  21        2S         -0.19426  -0.00209   0.01350   0.00086  -0.00075
  22        2PX        -0.09215   0.14272  -0.12137   0.28891  -0.42215
  23        2PY        -0.15887   0.24593  -0.19857  -0.16895   0.24409
  24        2PZ         0.00018  -0.01004   0.01105   0.00038  -0.00041
  25        3S          1.50019  -0.16175   0.01252   0.00030  -0.00036
  26        3PX        -0.22551  -0.18195   0.20819  -0.35395   0.58913
  27        3PY        -0.39592  -0.30573   0.33386   0.20361  -0.34078
  28        3PZ         0.00236   0.01072  -0.01398  -0.00039   0.00054
  29        4S         -5.69067  -0.21082   0.90172   0.02006  -0.00569
  30        4PX         1.08673  -0.01537  -0.19525   0.13438   0.86518
  31        4PY         1.98132  -0.04079  -0.30178  -0.07594  -0.51459
  32        4PZ         0.00800   0.00396  -0.00424  -0.00005   0.00133
  33 5   H  1S         -0.01755  -0.80394   0.65021   0.68743  -0.71221
  34        2S          0.28741   1.17519  -1.00049  -0.98406   1.50281
  35        3S          0.06222  -0.35280   0.37808   0.49730  -0.43331
  36 6   H  1S         -0.01745  -0.80030   0.67803  -0.66870   0.70642
  37        2S          0.31866   1.16715  -1.03490   0.95286  -1.48329
  38        3S          0.07738  -0.35970   0.41411  -0.49240   0.44349
                          31        32        33        34        35
                           V         V         V         V         V
     Eigenvalues --     2.67115   2.81844   2.87748   2.95194   3.14170
   1 1   C  1S          0.00027  -0.00161  -0.01369   0.00003  -0.00996
   2        2S          0.00016  -0.00461  -0.04419  -0.00026  -0.03054
   3        2PX         0.00270  -0.04644  -0.48145  -0.72057   0.43844
   4        2PY         0.00341  -0.08162  -0.87721   0.40289   0.76140
   5        2PZ        -0.92699   0.93367  -0.08659  -0.00107   0.00276
   6        3S         -0.00030   0.03799   0.38433   0.00449   0.25660
   7        3PX        -0.00145   0.08018   0.84469   0.86665  -0.41150
   8        3PY        -0.00138   0.13972   1.50726  -0.46942  -0.71089
   9        3PZ         0.94293  -1.14185   0.10871   0.00142  -0.00345
  10        4S          0.00657  -0.08913  -0.88213  -0.01243  -0.50832
  11        4PX        -0.00178  -0.06404  -0.71347  -0.67657   0.19889
  12        4PY        -0.00282  -0.11245  -1.27710   0.35526   0.33409
  13        4PZ        -0.33977   0.61946  -0.06865  -0.00114   0.00163
  14 2   H  1S          0.00740   0.01253   0.25818  -0.37397  -0.20474
  15        2S         -0.00831  -0.00773  -0.21231   0.39469   0.15456
  16        3S         -0.00186  -0.02611  -0.30109   0.27136   0.04372
  17 3   H  1S          0.00752   0.01202   0.24565   0.37541  -0.20826
  18        2S         -0.00860  -0.00649  -0.19003  -0.39161   0.15867
  19        3S         -0.00218  -0.02634  -0.30172  -0.29071   0.05480
  20 4   C  1S          0.00035   0.00155   0.01327   0.00063  -0.00751
  21        2S          0.00040   0.00483   0.04770   0.00146  -0.02249
  22        2PX        -0.00497  -0.04037  -0.39787  -0.81717  -0.51207
  23        2PY        -0.00968  -0.07261  -0.70837   0.44924  -0.91090
  24        2PZ        -0.92254  -0.93757   0.09161   0.00004   0.00974
  25        3S         -0.00249  -0.04158  -0.43191  -0.01084   0.18953
  26        3PX         0.00556   0.07405   0.76105   0.98104   0.55892
  27        3PY         0.01052   0.13185   1.34642  -0.53197   1.00481
  28        3PZ         0.93744   1.14552  -0.11528  -0.00002  -0.01253
  29        4S          0.01124   0.09009   0.89590   0.03082  -0.35652
  30        4PX        -0.00098  -0.06373  -0.71044  -0.70400  -0.35104
  31        4PY        -0.00225  -0.11197  -1.24235   0.37659  -0.63471
  32        4PZ        -0.33689  -0.62040   0.07348  -0.00003   0.00997
  33 5   H  1S          0.00704  -0.01722  -0.29577   0.41714  -0.27614
  34        2S         -0.00876   0.01385   0.26974  -0.41998   0.21626
  35        3S         -0.00096   0.02471   0.28914  -0.25509   0.14214
  36 6   H  1S          0.00713  -0.01732  -0.29196  -0.43141  -0.26213
  37        2S         -0.00912   0.01456   0.27306   0.43440   0.20618
  38        3S         -0.00063   0.02333   0.27123   0.25496   0.13056
                          36        37        38
                           V         V         V
     Eigenvalues --     3.32280  23.35404  23.70560
   1 1   C  1S         -0.00038  -1.42094  -1.44549
   2        2S         -0.00047   1.51558   1.56316
   3        2PX         0.79311  -0.00641   0.01217
   4        2PY        -0.44105  -0.01039   0.02142
   5        2PZ         0.00097  -0.00031  -0.00015
   6        3S         -0.00164  -0.29861  -0.39770
   7        3PX        -1.13284   0.02319  -0.05555
   8        3PY         0.62404   0.03823  -0.09681
   9        3PZ        -0.00145   0.00089   0.00044
  10        4S         -0.00231   0.28129   0.76461
  11        4PX         1.99793  -0.02368   0.13361
  12        4PY        -1.09870  -0.03985   0.22935
  13        4PZ         0.00248  -0.00148  -0.00185
  14 2   H  1S          0.56619   0.01248   0.00682
  15        2S         -0.88580   0.00776  -0.01453
  16        3S         -0.46247  -0.08365  -0.03938
  17 3   H  1S         -0.57890   0.01445   0.00810
  18        2S          0.90419   0.00735  -0.01437
  19        3S          0.49223  -0.08611  -0.03934
  20 4   C  1S          0.00016  -1.44072   1.42563
  21        2S         -0.00008   1.53658  -1.54161
  22        2PX        -0.70090   0.00636   0.01258
  23        2PY         0.40433   0.01163   0.02131
  24        2PZ        -0.00083  -0.00037   0.00010
  25        3S          0.00481  -0.30121   0.39130
  26        3PX         1.00100  -0.02323  -0.05611
  27        3PY        -0.58797  -0.04190  -0.09620
  28        3PZ         0.00126   0.00107  -0.00023
  29        4S         -0.01847   0.27406  -0.76058
  30        4PX        -1.77230   0.02549   0.12957
  31        4PY         1.05101   0.04710   0.22493
  32        4PZ        -0.00221  -0.00174   0.00143
  33 5   H  1S          0.48422   0.01493  -0.00582
  34        2S         -0.75439   0.00751   0.01444
  35        3S         -0.44467  -0.08425   0.03822
  36 6   H  1S         -0.47685   0.01310  -0.00443
  37        2S          0.74544   0.00875   0.01403
  38        3S          0.42786  -0.08173   0.03772
     Density Matrix:
                           1         2         3         4         5
   1 1   C  1S          0.65939
   2        2S          0.56147   0.49192
   3        2PX        -0.00048  -0.00062   0.08411
   4        2PY        -0.00125  -0.00173   0.00375   0.08753
   5        2PZ         0.00006   0.00009  -0.00008  -0.00020   0.06444
   6        3S         -0.08884  -0.15368   0.00246   0.00620  -0.00015
   7        3PX         0.00090   0.00138   0.13031   0.00120  -0.00007
   8        3PY         0.00119   0.00184   0.00123   0.13088  -0.00019
   9        3PZ         0.00011   0.00019  -0.00014  -0.00031   0.10356
  10        4S         -0.07943  -0.11441  -0.01616  -0.02899   0.00045
  11        4PX         0.00025   0.00159   0.06988  -0.00448  -0.00034
  12        4PY         0.00064   0.00309  -0.00452   0.06535  -0.00058
  13        4PZ        -0.00005  -0.00013  -0.00053  -0.00088   0.09590
  14 2   H  1S         -0.02051  -0.03268   0.03482  -0.06262  -0.00067
  15        2S         -0.02303  -0.03683   0.04881  -0.08773  -0.00051
  16        3S          0.00050  -0.00082   0.02032  -0.03317   0.00001
  17 3   H  1S         -0.02107  -0.03354  -0.07252  -0.00202  -0.00079
  18        2S         -0.02338  -0.03734  -0.10030  -0.00261  -0.00065
  19        3S          0.00055  -0.00076  -0.03820   0.00075  -0.00004
  20 4   C  1S          0.00604   0.00974  -0.01087  -0.01884  -0.00027
  21        2S          0.00970   0.01516  -0.01740  -0.03017  -0.00044
  22        2PX         0.01030   0.01646  -0.01255  -0.03207   0.00029
  23        2PY         0.01793   0.02865  -0.03208  -0.04976   0.00061
  24        2PZ        -0.00029  -0.00047  -0.00023  -0.00032   0.06426
  25        3S         -0.02603  -0.03953   0.04877   0.08469   0.00133
  26        3PX         0.01587   0.02458  -0.01843  -0.04598   0.00038
  27        3PY         0.02760   0.04275  -0.04581  -0.07155   0.00081
  28        3PZ        -0.00049  -0.00079  -0.00041  -0.00057   0.10298
  29        4S          0.00533   0.00388   0.02168   0.03814   0.00148
  30        4PX         0.00307   0.00634  -0.01325  -0.02130   0.00044
  31        4PY         0.00516   0.01077  -0.02134  -0.03782   0.00094
  32        4PZ        -0.00041  -0.00066  -0.00064  -0.00098   0.09617
  33 5   H  1S          0.00419   0.00688  -0.00172  -0.01248  -0.00030
  34        2S          0.00617   0.01024   0.00361  -0.02488   0.00003
  35        3S          0.00312   0.00454   0.00433  -0.01729   0.00007
  36 6   H  1S          0.00413   0.00678  -0.00994  -0.00768  -0.00032
  37        2S          0.00609   0.01014  -0.02332  -0.00929  -0.00000
  38        3S          0.00308   0.00451  -0.01713  -0.00498   0.00004
                           6         7         8         9        10
   6        3S          0.45212
   7        3PX        -0.00188   0.20223
   8        3PY        -0.00143  -0.00487   0.19621
   9        3PZ        -0.00041  -0.00012  -0.00029   0.16643
  10        4S          0.27368  -0.02696  -0.04928   0.00061   0.18351
  11        4PX        -0.00693   0.10879  -0.01028  -0.00055  -0.01553
  12        4PY        -0.01271  -0.01039   0.09840  -0.00093  -0.02986
  13        4PZ         0.00059  -0.00071  -0.00116   0.15412   0.00142
  14 2   H  1S          0.08738   0.05636  -0.09779  -0.00112   0.06974
  15        2S          0.09858   0.07938  -0.13653  -0.00087   0.08311
  16        3S          0.00633   0.03337  -0.05101   0.00001   0.01180
  17 3   H  1S          0.08976  -0.11361  -0.00133  -0.00129   0.06975
  18        2S          0.10005  -0.15696  -0.00092  -0.00107   0.08159
  19        3S          0.00632  -0.05954   0.00310  -0.00006   0.01063
  20 4   C  1S         -0.02642  -0.01700  -0.02949  -0.00046   0.00497
  21        2S         -0.03996  -0.02644  -0.04590  -0.00074   0.00365
  22        2PX        -0.04609  -0.01786  -0.04540   0.00050  -0.01687
  23        2PY        -0.08023  -0.04540  -0.07079   0.00103  -0.02915
  24        2PZ         0.00140  -0.00032  -0.00041   0.10328   0.00157
  25        3S          0.10148   0.07175   0.12481   0.00223   0.00120
  26        3PX        -0.06652  -0.02634  -0.06490   0.00066  -0.02495
  27        3PY        -0.11565  -0.06466  -0.10174   0.00138  -0.04301
  28        3PZ         0.00231  -0.00057  -0.00076   0.16549   0.00259
  29        4S          0.00230   0.03284   0.05803   0.00247  -0.03175
  30        4PX        -0.02247  -0.01977  -0.02983   0.00073  -0.00590
  31        4PY        -0.03843  -0.02993  -0.05449   0.00155  -0.00932
  32        4PZ         0.00193  -0.00090  -0.00135   0.15455   0.00240
  33 5   H  1S         -0.02043  -0.00053  -0.01778  -0.00044  -0.01398
  34        2S         -0.03061   0.00891  -0.03648   0.00011  -0.01777
  35        3S         -0.01162   0.00830  -0.02601   0.00012  -0.00286
  36 6   H  1S         -0.02013  -0.01496  -0.00913  -0.00046  -0.01425
  37        2S         -0.03034  -0.03575  -0.01021   0.00006  -0.01864
  38        3S         -0.01157  -0.02651  -0.00580   0.00008  -0.00345
                          11        12        13        14        15
  11        4PX         0.05956
  12        4PY        -0.00907   0.05086
  13        4PZ        -0.00082  -0.00133   0.14272
  14 2   H  1S          0.03347  -0.05388  -0.00057   0.08077
  15        2S          0.04801  -0.07502  -0.00020   0.10930   0.14990
  16        3S          0.02068  -0.02782   0.00016   0.03661   0.05240
  17 3   H  1S         -0.06273   0.00173  -0.00065  -0.01334  -0.02448
  18        2S         -0.08700   0.00386  -0.00030  -0.02439  -0.04183
  19        3S         -0.03327   0.00413   0.00013  -0.01767  -0.02666
  20 4   C  1S         -0.00324  -0.00594  -0.00041   0.00421   0.00681
  21        2S         -0.00666  -0.01204  -0.00067   0.00697   0.01138
  22        2PX        -0.01326  -0.01968   0.00069   0.00172  -0.00273
  23        2PY        -0.01972  -0.03662   0.00135   0.01138   0.02432
  24        2PZ        -0.00045  -0.00065   0.09564  -0.00034  -0.00014
  25        3S          0.02346   0.04205   0.00196  -0.02102  -0.03426
  26        3PX        -0.02034  -0.02802   0.00094   0.00110  -0.00687
  27        3PY        -0.02800  -0.05346   0.00187   0.01702   0.03647
  28        3PZ        -0.00074  -0.00108   0.15325  -0.00051  -0.00017
  29        4S          0.00893   0.01708   0.00226  -0.01839  -0.02568
  30        4PX        -0.01484  -0.01244   0.00088  -0.00150  -0.00806
  31        4PY        -0.01255  -0.02965   0.00179   0.01531   0.02736
  32        4PZ        -0.00090  -0.00138   0.14313  -0.00029   0.00012
  33 5   H  1S          0.00214  -0.01574  -0.00022   0.01119   0.02330
  34        2S          0.00943  -0.02721   0.00035   0.02368   0.04417
  35        3S          0.00763  -0.01562   0.00022   0.01653   0.02768
  36 6   H  1S         -0.01450  -0.00550  -0.00023  -0.00914  -0.01827
  37        2S         -0.02796  -0.00468   0.00032  -0.01884  -0.03427
  38        3S         -0.01709  -0.00093   0.00019  -0.01019  -0.01772
                          16        17        18        19        20
  16        3S          0.02094
  17 3   H  1S         -0.01787   0.08214
  18        2S         -0.02677   0.10964   0.14838
  19        3S         -0.01251   0.03595   0.05087   0.02006
  20 4   C  1S          0.00379   0.00429   0.00684   0.00379   0.65948
  21        2S          0.00561   0.00710   0.01141   0.00559   0.56163
  22        2PX        -0.00344   0.00903   0.02235   0.01686   0.00117
  23        2PY         0.01785   0.00731   0.00971   0.00575   0.00170
  24        2PZ         0.00001  -0.00034  -0.00010   0.00005   0.00005
  25        3S         -0.01461  -0.02132  -0.03419  -0.01441  -0.08937
  26        3PX        -0.00674   0.01432   0.03505   0.02623  -0.00050
  27        3PY         0.02685   0.00962   0.01218   0.00735  -0.00117
  28        3PZ         0.00004  -0.00049  -0.00011   0.00009   0.00011
  29        4S         -0.00659  -0.01803  -0.02456  -0.00590  -0.07980
  30        4PX        -0.00680   0.01405   0.02768   0.01715  -0.00020
  31        4PY         0.01610   0.00678   0.00713   0.00223  -0.00017
  32        4PZ         0.00017  -0.00028   0.00015   0.00019  -0.00005
  33 5   H  1S          0.01626  -0.00906  -0.01810  -0.00938  -0.02041
  34        2S          0.02730  -0.01859  -0.03369  -0.01678  -0.02212
  35        3S          0.01454  -0.01005  -0.01737  -0.00886   0.00070
  36 6   H  1S         -0.00953   0.01119   0.02317   0.01594  -0.02001
  37        2S         -0.01720   0.02369   0.04398   0.02690  -0.02201
  38        3S         -0.00911   0.01656   0.02756   0.01435   0.00058
                          21        22        23        24        25
  21        2S          0.49218
  22        2PX         0.00168   0.08328
  23        2PY         0.00241   0.00328   0.08807
  24        2PZ         0.00007   0.00008   0.00009   0.06410
  25        3S         -0.15447  -0.00540  -0.00788  -0.00007   0.45436
  26        3PX        -0.00075   0.12927   0.00159   0.00004  -0.00016
  27        3PY        -0.00178   0.00164   0.13201  -0.00000   0.00126
  28        3PZ         0.00018   0.00012   0.00015   0.10272  -0.00034
  29        4S         -0.11521   0.01290   0.02145   0.00032   0.27690
  30        4PX        -0.00143   0.07364  -0.00512   0.00030   0.00603
  31        4PY        -0.00214  -0.00499   0.06756   0.00057   0.00951
  32        4PZ        -0.00013   0.00048   0.00088   0.09592   0.00064
  33 5   H  1S         -0.03248  -0.03377   0.06449  -0.00089   0.08685
  34        2S         -0.03533  -0.05008   0.08860  -0.00069   0.09455
  35        3S         -0.00046  -0.02287   0.03320  -0.00009   0.00535
  36 6   H  1S         -0.03187   0.07181   0.00263  -0.00077   0.08521
  37        2S         -0.03519   0.10151   0.00039  -0.00054   0.09413
  38        3S         -0.00063   0.04056  -0.00350  -0.00003   0.00566
                          26        27        28        29        30
  26        3PX         0.20093
  27        3PY        -0.00248   0.19838
  28        3PZ         0.00005   0.00000   0.16460
  29        4S          0.02409   0.03966   0.00036   0.18294
  30        4PX         0.11488  -0.01033   0.00048   0.01492   0.06672
  31        4PY        -0.01022   0.10202   0.00092   0.02317  -0.01002
  32        4PZ         0.00061   0.00113   0.15371   0.00118   0.00074
  33 5   H  1S         -0.05358   0.10074  -0.00146   0.06617  -0.03446
  34        2S         -0.07989   0.13792  -0.00114   0.07482  -0.05179
  35        3S         -0.03694   0.05103  -0.00013   0.00826  -0.02410
  36 6   H  1S          0.11317   0.00361  -0.00129   0.06655   0.06619
  37        2S          0.15975  -0.00073  -0.00092   0.07682   0.09390
  38        3S          0.06350  -0.00675  -0.00005   0.00951   0.03768
                          31        32        33        34        35
  31        4PY         0.05395
  32        4PZ         0.00145   0.14355
  33 5   H  1S          0.05615  -0.00076   0.08205
  34        2S          0.07705  -0.00031   0.11039   0.15105
  35        3S          0.02869   0.00008   0.03787   0.05445   0.02246
  36 6   H  1S         -0.00178  -0.00068  -0.01236  -0.02617  -0.02013
  37        2S         -0.00628  -0.00020  -0.02629  -0.04866  -0.03180
  38        3S         -0.00646   0.00011  -0.02039  -0.03195  -0.01571
                          36        37        38
  36 6   H  1S          0.08081
  37        2S          0.10996   0.15207
  38        3S          0.03825   0.05546   0.02303
    Full Mulliken population analysis:
                           1         2         3         4         5
   1 1   C  1S          0.65939
   2        2S          0.49322   0.49192
   3        2PX         0.00000   0.00000   0.08411
   4        2PY         0.00000   0.00000   0.00000   0.08753
   5        2PZ         0.00000   0.00000   0.00000   0.00000   0.06444
   6        3S         -0.02924  -0.06436   0.00000   0.00000   0.00000
   7        3PX         0.00000   0.00000   0.08198   0.00000   0.00000
   8        3PY         0.00000   0.00000   0.00000   0.08234   0.00000
   9        3PZ         0.00000   0.00000   0.00000   0.00000   0.06515
  10        4S         -0.01221  -0.02141   0.00000   0.00000   0.00000
  11        4PX         0.00000   0.00000   0.01539   0.00000   0.00000
  12        4PY         0.00000   0.00000   0.00000   0.01439   0.00000
  13        4PZ         0.00000   0.00000   0.00000   0.00000   0.02112
  14 2   H  1S         -0.00022  -0.00032   0.00182   0.00543   0.00000
  15        2S         -0.00166  -0.00318   0.00437   0.01301   0.00000
  16        3S          0.00004  -0.00008   0.00070   0.00190  -0.00000
  17 3   H  1S         -0.00025  -0.00036   0.00779  -0.00000   0.00000
  18        2S         -0.00174  -0.00333   0.01766  -0.00000   0.00000
  19        3S          0.00004  -0.00007   0.00254   0.00000   0.00000
  20 4   C  1S          0.00000   0.00000  -0.00002  -0.00006   0.00000
  21        2S          0.00000  -0.00000  -0.00002  -0.00005   0.00000
  22        2PX        -0.00002  -0.00002   0.00011   0.00085   0.00000
  23        2PY        -0.00006  -0.00005   0.00085   0.00195   0.00000
  24        2PZ        -0.00000  -0.00000  -0.00000  -0.00000   0.00041
  25        3S         -0.00058  -0.00098   0.00254   0.00763  -0.00000
  26        3PX        -0.00053  -0.00098   0.00019   0.00555   0.00000
  27        3PY        -0.00161  -0.00295   0.00553   0.01072   0.00000
  28        3PZ        -0.00000  -0.00000  -0.00000  -0.00000   0.00608
  29        4S          0.00034   0.00029   0.00098   0.00300  -0.00000
  30        4PX        -0.00018  -0.00045  -0.00071   0.00148   0.00000
  31        4PY        -0.00052  -0.00132   0.00148   0.00099   0.00000
  32        4PZ        -0.00000  -0.00000  -0.00000  -0.00000   0.00903
  33 5   H  1S          0.00000   0.00000  -0.00000  -0.00000   0.00000
  34        2S          0.00001   0.00002   0.00000  -0.00032  -0.00000
  35        3S          0.00007   0.00013   0.00002  -0.00069  -0.00000
  36 6   H  1S          0.00000   0.00000  -0.00000  -0.00000   0.00000
  37        2S          0.00001   0.00002  -0.00024  -0.00007   0.00000
  38        3S          0.00007   0.00012  -0.00056  -0.00011  -0.00000
                           6         7         8         9        10
   6        3S          0.45212
   7        3PX         0.00000   0.20223
   8        3PY         0.00000   0.00000   0.19621
   9        3PZ         0.00000   0.00000   0.00000   0.16643
  10        4S          0.21202   0.00000   0.00000   0.00000   0.18351
  11        4PX         0.00000   0.07109   0.00000   0.00000   0.00000
  12        4PY         0.00000   0.00000   0.06430   0.00000   0.00000
  13        4PZ         0.00000   0.00000   0.00000   0.10071   0.00000
  14 2   H  1S          0.01585   0.01100   0.03163   0.00001   0.01836
  15        2S          0.04120   0.01997   0.05694   0.00001   0.04773
  16        3S          0.00291   0.00402   0.01018  -0.00000   0.00889
  17 3   H  1S          0.01689   0.04400  -0.00000   0.00001   0.01862
  18        2S          0.04269   0.07708  -0.00000   0.00001   0.04736
  19        3S          0.00293   0.01383   0.00000   0.00000   0.00806
  20 4   C  1S         -0.00059  -0.00057  -0.00172   0.00000   0.00031
  21        2S         -0.00099  -0.00105  -0.00317   0.00000   0.00028
  22        2PX         0.00240   0.00019   0.00548   0.00000   0.00077
  23        2PY         0.00722   0.00548   0.01060   0.00000   0.00229
  24        2PZ         0.00000  -0.00000  -0.00000   0.00610   0.00000
  25        3S          0.02157   0.01342   0.04043  -0.00000   0.00045
  26        3PX         0.01244  -0.00126   0.01850   0.00000   0.00384
  27        3PY         0.03747   0.01843   0.02860   0.00000   0.01148
  28        3PZ         0.00000  -0.00000  -0.00000   0.03518   0.00000
  29        4S          0.00087   0.00506   0.01549  -0.00000  -0.01992
  30        4PX         0.00631  -0.00405   0.00591   0.00000   0.00179
  31        4PY         0.01869   0.00593   0.00130   0.00000   0.00489
  32        4PZ         0.00000  -0.00000  -0.00000   0.04932   0.00000
  33 5   H  1S         -0.00006  -0.00000  -0.00019   0.00000  -0.00075
  34        2S         -0.00119   0.00007  -0.00322  -0.00000  -0.00299
  35        3S         -0.00190   0.00012  -0.00420  -0.00000  -0.00103
  36 6   H  1S         -0.00005  -0.00013  -0.00005   0.00000  -0.00075
  37        2S         -0.00115  -0.00253  -0.00050  -0.00000  -0.00309
  38        3S         -0.00187  -0.00349  -0.00053  -0.00000  -0.00124
                          11        12        13        14        15
  11        4PX         0.05956
  12        4PY         0.00000   0.05086
  13        4PZ         0.00000   0.00000   0.14272
  14 2   H  1S          0.00647   0.01726   0.00000   0.08077
  15        2S          0.01563   0.04050   0.00000   0.07721   0.14990
  16        3S          0.00529   0.01179  -0.00000   0.01368   0.04134
  17 3   H  1S          0.02350   0.00000   0.00000  -0.00001  -0.00060
  18        2S          0.05476   0.00001   0.00000  -0.00060  -0.00502
  19        3S          0.01636   0.00001  -0.00000  -0.00192  -0.00761
  20 4   C  1S         -0.00019  -0.00060   0.00000   0.00000   0.00002
  21        2S         -0.00047  -0.00148   0.00000   0.00000   0.00003
  22        2PX        -0.00071   0.00136   0.00000  -0.00000   0.00000
  23        2PY         0.00137   0.00096   0.00000  -0.00000  -0.00037
  24        2PZ        -0.00000  -0.00000   0.00898   0.00000   0.00000
  25        3S          0.00659   0.02045  -0.00000  -0.00007  -0.00153
  26        3PX        -0.00416   0.00555   0.00000  -0.00000   0.00003
  27        3PY         0.00555   0.00128   0.00000  -0.00023  -0.00362
  28        3PZ        -0.00000  -0.00000   0.04890   0.00000   0.00000
  29        4S          0.00270   0.00896  -0.00000  -0.00108  -0.00464
  30        4PX        -0.00714   0.00315   0.00000   0.00001   0.00015
  31        4PY         0.00318  -0.00559   0.00000  -0.00244  -0.01036
  32        4PZ        -0.00000  -0.00000   0.08979   0.00000  -0.00000
  33 5   H  1S          0.00003  -0.00234   0.00000   0.00000   0.00000
  34        2S          0.00030  -0.00978  -0.00000   0.00000   0.00016
  35        3S          0.00031  -0.00721  -0.00000   0.00023   0.00147
  36 6   H  1S         -0.00175  -0.00046   0.00000  -0.00000  -0.00004
  37        2S         -0.00819  -0.00096  -0.00000  -0.00004  -0.00093
  38        3S         -0.00647  -0.00025  -0.00000  -0.00047  -0.00248
                          16        17        18        19        20
  16        3S          0.02094
  17 3   H  1S         -0.00194   0.08214
  18        2S         -0.00764   0.07744   0.14838
  19        3S         -0.00641   0.01343   0.04013   0.02006
  20 4   C  1S          0.00009   0.00000   0.00002   0.00010   0.65948
  21        2S          0.00017   0.00000   0.00003   0.00017   0.49336
  22        2PX         0.00001  -0.00000  -0.00028  -0.00060   0.00000
  23        2PY        -0.00075  -0.00000  -0.00008  -0.00013   0.00000
  24        2PZ        -0.00000   0.00000   0.00000  -0.00000   0.00000
  25        3S         -0.00253  -0.00007  -0.00154  -0.00251  -0.02942
  26        3PX         0.00005  -0.00016  -0.00293  -0.00369   0.00000
  27        3PY        -0.00451  -0.00007  -0.00067  -0.00068   0.00000
  28        3PZ        -0.00000   0.00000   0.00000  -0.00000   0.00000
  29        4S         -0.00248  -0.00107  -0.00446  -0.00223  -0.01227
  30        4PX         0.00015  -0.00189  -0.00880  -0.00679   0.00000
  31        4PY        -0.00761  -0.00060  -0.00149  -0.00058   0.00000
  32        4PZ        -0.00000   0.00000  -0.00000  -0.00000   0.00000
  33 5   H  1S          0.00023  -0.00000  -0.00004  -0.00043  -0.00024
  34        2S          0.00145  -0.00004  -0.00091  -0.00235  -0.00163
  35        3S          0.00247  -0.00046  -0.00243  -0.00284   0.00006
  36 6   H  1S         -0.00044   0.00000   0.00000   0.00022  -0.00021
  37        2S         -0.00241   0.00000   0.00016   0.00142  -0.00157
  38        3S         -0.00292   0.00023   0.00145   0.00242   0.00005
                          21        22        23        24        25
  21        2S          0.49218
  22        2PX         0.00000   0.08328
  23        2PY         0.00000   0.00000   0.08807
  24        2PZ         0.00000   0.00000   0.00000   0.06410
  25        3S         -0.06469   0.00000   0.00000   0.00000   0.45436
  26        3PX         0.00000   0.08132   0.00000   0.00000   0.00000
  27        3PY         0.00000   0.00000   0.08305   0.00000   0.00000
  28        3PZ         0.00000   0.00000   0.00000   0.06462   0.00000
  29        4S         -0.02156   0.00000   0.00000   0.00000   0.21451
  30        4PX         0.00000   0.01622   0.00000   0.00000   0.00000
  31        4PY         0.00000   0.00000   0.01488   0.00000   0.00000
  32        4PZ         0.00000   0.00000   0.00000   0.02112   0.00000
  33 5   H  1S         -0.00034   0.00155   0.00609   0.00000   0.01611
  34        2S         -0.00311   0.00383   0.01394   0.00000   0.04002
  35        3S         -0.00004   0.00067   0.00199   0.00000   0.00247
  36 6   H  1S         -0.00030   0.00713   0.00002   0.00000   0.01529
  37        2S         -0.00301   0.01746   0.00000   0.00000   0.03911
  38        3S         -0.00006   0.00270  -0.00002   0.00000   0.00259
                          26        27        28        29        30
  26        3PX         0.20093
  27        3PY         0.00000   0.19838
  28        3PZ         0.00000   0.00000   0.16460
  29        4S          0.00000   0.00000   0.00000   0.18294
  30        4PX         0.07507   0.00000   0.00000   0.00000   0.06672
  31        4PY         0.00000   0.06667   0.00000   0.00000   0.00000
  32        4PZ         0.00000   0.00000   0.10044   0.00000   0.00000
  33 5   H  1S          0.00899   0.03475   0.00001   0.01757   0.00565
  34        2S          0.01711   0.06070   0.00001   0.04325   0.01427
  35        3S          0.00376   0.01067   0.00000   0.00624   0.00520
  36 6   H  1S          0.04235   0.00009   0.00001   0.01745   0.02469
  37        2S          0.07743  -0.00002   0.00001   0.04399   0.05908
  38        3S          0.01477  -0.00011   0.00000   0.00715   0.01863
                          31        32        33        34        35
  31        4PY         0.05395
  32        4PZ         0.00000   0.14355
  33 5   H  1S          0.01891   0.00001   0.08205
  34        2S          0.04363   0.00000   0.07798   0.15105
  35        3S          0.01272  -0.00000   0.01415   0.04296   0.02246
  36 6   H  1S         -0.00005   0.00000  -0.00001  -0.00087  -0.00244
  37        2S         -0.00028   0.00000  -0.00087  -0.00706  -0.00994
  38        3S         -0.00022  -0.00000  -0.00248  -0.00999  -0.00854
                          36        37        38
  36 6   H  1S          0.08081
  37        2S          0.07767   0.15207
  38        3S          0.01429   0.04376   0.02303
     Gross orbital populations:
                           1
   1 1   C  1S          1.10436
   2        2S          0.88586
   3        2PX         0.22650
   4        2PY         0.23544
   5        2PZ         0.16625
   6        3S          0.79219
   7        3PX         0.56080
   8        3PY         0.55432
   9        3PZ         0.42293
  10        4S          0.50725
  11        4PX         0.25900
  12        4PY         0.21216
  13        4PZ         0.41224
  14 2   H  1S          0.27232
  15        2S          0.46763
  16        3S          0.08657
  17 3   H  1S          0.27654
  18        2S          0.46522
  19        3S          0.08288
  20 4   C  1S          1.10439
  21        2S          0.88584
  22        2PX         0.22369
  23        2PY         0.23730
  24        2PZ         0.16535
  25        3S          0.79363
  26        3PX         0.55418
  27        3PY         0.55889
  28        3PZ         0.41987
  29        4S          0.50109
  30        4PX         0.27447
  31        4PY         0.21615
  32        4PZ         0.41327
  33 5   H  1S          0.27634
  34        2S          0.46733
  35        3S          0.08643
  36 6   H  1S          0.27249
  37        2S          0.46934
  38        3S          0.08949
          Condensed to atoms (all electrons):
               1          2          3          4          5          6
     1  C    5.029985   0.387416   0.388406   0.602470  -0.034791  -0.034199
     2  H    0.387416   0.516065  -0.031747  -0.041509   0.006025  -0.009723
     3  H    0.388406  -0.031747   0.512593  -0.041008  -0.009507   0.005915
     4  C    0.602470  -0.041509  -0.041008   5.059174   0.384840   0.384159
     5  H   -0.034791   0.006025  -0.009507   0.384840   0.525733  -0.042203
     6  H   -0.034199  -0.009723   0.005915   0.384159  -0.042203   0.527363
 Mulliken charges:
               1
     1  C   -0.339287
     2  H    0.173473
     3  H    0.175348
     4  C   -0.348126
     5  H    0.169904
     6  H    0.168688
 Sum of Mulliken charges =   0.00000
 Mulliken charges with hydrogens summed into heavy atoms:
               1
     1  C    0.009535
     4  C   -0.009535
 Electronic spatial extent (au):  <R**2>=             83.6095
 Charge=             -0.0000 electrons
 Dipole moment (field-independent basis, Debye):
    X=              0.0101    Y=              0.0391    Z=             -0.0661  Tot=              0.0774
 Quadrupole moment (field-independent basis, Debye-Ang):
   XX=            -12.1954   YY=            -12.2151   ZZ=            -15.6637
   XY=              0.0103   XZ=             -0.0017   YZ=             -0.0070
 Traceless Quadrupole moment (field-independent basis, Debye-Ang):
   XX=              1.1627   YY=              1.1430   ZZ=             -2.3057
   XY=              0.0103   XZ=             -0.0017   YZ=             -0.0070
 Octapole moment (field-independent basis, Debye-Ang**2):
  XXX=             -0.4079  YYY=              0.0747  ZZZ=             -0.0571  XYY=              0.3118
  XXY=             -0.0056  XXZ=             -0.0925  XZZ=             -0.0802  YZZ=             -0.0490
  YYZ=             -0.1208  XYZ=             -0.0248
 Hexadecapole moment (field-independent basis, Debye-Ang**3):
 XXXX=            -34.2275 YYYY=            -55.1197 ZZZZ=            -17.7971 XXXY=             -7.2715
 XXXZ=              0.0124 YYYX=            -10.6863 YYYZ=              0.0156 ZZZX=              0.0189
 ZZZY=              0.0378 XXYY=            -16.1480 XXZZ=             -9.9073 YYZZ=            -13.6131
 XXYZ=              0.0071 YYXZ=              0.0005 ZZXY=             -3.2032
 N-N= 3.309649733612D+01 E-N=-2.479128241097D+02  KE= 7.816491113903D+01
 Orbital energies and kinetic energies (alpha):
                                 1                 2
   1         O               -10.289167         15.976341
   2         O               -10.288013         15.981719
   3         O                -0.863797          1.536538
   4         O                -0.673315          1.273329
   5         O                -0.560121          0.943199
   6         O                -0.508949          1.286380
   7         O                -0.437218          1.047183
   8         O                -0.356566          1.037766
   9         V                 0.079743          1.182008
  10         V                 0.141171          0.587679
  11         V                 0.165447          0.590354
  12         V                 0.170612          0.677221
  13         V                 0.240989          0.581267
  14         V                 0.370151          0.844983
  15         V                 0.394742          0.936129
  16         V                 0.401741          0.794237
  17         V                 0.465493          1.188096
  18         V                 0.489466          1.421268
  19         V                 0.494021          1.302163
  20         V                 0.591084          1.651500
  21         V                 0.666346          1.576049
  22         V                 0.692895          2.146322
  23         V                 0.774588          2.164747
  24         V                 0.774654          2.582475
  25         V                 0.844792          1.088955
  26         V                 0.951067          3.419449
  27         V                 2.230945          3.933742
  28         V                 2.291825          4.026463
  29         V                 2.332712          4.307790
  30         V                 2.408470          4.522205
  31         V                 2.671146          6.300849
  32         V                 2.818438          6.308027
  33         V                 2.877485          6.138800
  34         V                 2.951944          6.225799
  35         V                 3.141701          6.819483
  36         V                 3.322803          6.402476
  37         V                23.354044         60.075228
  38         V                23.705604         60.203172
 Total kinetic energy from orbitals= 7.816491113903D+01
 Calling FoFJK, ICntrl=      2127 FMM=F ISym2X=0 I1Cent= 0 IOpClX= 0 NMat=1 NMatS=1 NMatT=0.
 -------------------------------------------------------------------
 Center     Atomic                   Forces (Hartrees/Bohr)
 Number     Number              X              Y              Z
 -------------------------------------------------------------------
      1        6           0.015474995    0.009833037   -0.002483149
      2        1          -0.012556360    0.007170267    0.001295322
      3        1           0.004126479   -0.006394231    0.001178039
      4        6           0.008637188    0.004155597   -0.002962574
      5        1          -0.002942352   -0.007695941    0.001428181
      6        1          -0.012739950   -0.007068729    0.001544181
 -------------------------------------------------------------------
 Cartesian Forces:  Max     0.015474995 RMS     0.007444662

 GradGradGradGradGradGradGradGradGradGradGradGradGradGradGradGradGradGrad
 Berny optimization.
 Search for a local minimum.
 Step number   1 out of a maximum of    2
 All quantities printed in internal units (Hartrees-Bohrs-Radians)
 Second derivative matrix not updated -- first step.
 The second derivative matrix:
                          X1        Y1        Z1        X2        Y2
           X1           0.75732
           Y1           0.09424   0.84972
           Z1           0.00377   0.00537   0.16839
           X2          -0.16617   0.09653   0.00125   0.14350
           Y2           0.10185  -0.27674  -0.00457  -0.11552   0.26531
           Z2           0.00201  -0.00577  -0.05380  -0.00185   0.00470
           X3          -0.35046   0.00131  -0.00520   0.00015   0.00010
           Y3          -0.00388  -0.11034  -0.00123   0.03199   0.01928
           Z3          -0.00663  -0.00120  -0.05530   0.00096   0.00038
           X4          -0.26637  -0.17726  -0.00055   0.02252   0.01358
           Y4          -0.17765  -0.47104  -0.00086  -0.01301  -0.00784
           Z4           0.00083   0.00156  -0.09427  -0.00037  -0.00051
           X5           0.02383  -0.01376   0.00046  -0.00000   0.00000
           Y5           0.01159  -0.00669   0.00062   0.00000  -0.00000
           Z5          -0.00030   0.00019   0.01790   0.00016  -0.00008
           X6           0.00184  -0.00106   0.00027  -0.00000   0.00000
           Y6          -0.02614   0.01510   0.00067   0.00000  -0.00000
           Z6           0.00032  -0.00017   0.01708  -0.00016   0.00008
                          Z2        X3        Y3        Z3        X4
           Z2           0.02787
           X3          -0.00018   0.35044
           Y3           0.00106  -0.00149   0.07568
           Z3           0.01051   0.00567   0.00079   0.02887
           X4           0.00038  -0.00014  -0.02663  -0.00037   0.72112
           Y4          -0.00020   0.00008   0.01538   0.00023   0.11982
           Z4           0.01532  -0.00029  -0.00062   0.01602  -0.00362
           X5          -0.00018  -0.00000   0.00000   0.00019  -0.14802
           Y5           0.00012   0.00000  -0.00000  -0.00012   0.09555
           Z5           0.00926   0.00017  -0.00011  -0.00945  -0.00236
           X6          -0.00018  -0.00000   0.00000   0.00018  -0.32912
           Y6           0.00009   0.00000  -0.00000  -0.00009  -0.02506
           Z6          -0.00916  -0.00016   0.00010   0.00935   0.00652
                          Y4        Z4        X5        Y5        Z5
           Y4           0.87155
           Z4          -0.00743   0.17882
           X5           0.08652  -0.00157   0.12655
           Y5          -0.30222   0.00559  -0.10601   0.29275
           Z5           0.00688  -0.05852   0.00208  -0.00597   0.03039
           X6          -0.01577   0.00501  -0.00235  -0.00114   0.00026
           Y6          -0.10582   0.00141   0.03324   0.01616  -0.00092
           Z6           0.00138  -0.05738  -0.00097  -0.00024   0.01041
                          X6        Y6        Z6
           X6           0.32963
           Y6           0.01796   0.07457
           Z6          -0.00555  -0.00115   0.02970
 ITU=  0
     Eigenvalues ---    0.03727   0.04399   0.09392   0.09959   0.13560
     Eigenvalues ---    0.17590   0.26449   0.29223   0.53256   0.70980
     Eigenvalues ---    0.97972   1.56168
 Angle between quadratic step and forces=  32.89 degrees.
 Linear search not attempted -- first point.
 B after Tr=     0.007808    0.008197   -0.006758
         Rot=    1.000000   -0.000008    0.000004   -0.000120 Ang=  -0.01 deg.
 Variable       Old X    -DE/DX   Delta X   Delta X   Delta X     New X
                                 (Linear)    (Quad)   (Total)
    X1       -0.63742   0.01547   0.00000   0.02376   0.03183  -0.60559
    Y1       -1.10169   0.00983   0.00000   0.02537   0.03342  -1.06827
    Z1        0.00908  -0.00248   0.00000  -0.01402  -0.02080  -0.01173
    X2        0.43763  -0.01256   0.00000  -0.05289  -0.04440   0.39323
    Y2       -2.88397   0.00717   0.00000   0.02261   0.03090  -2.85307
    Z2       -0.02469   0.00130   0.00000   0.01735   0.01055  -0.01414
    X3       -2.69293   0.00413   0.00000   0.03486   0.04293  -2.65000
    Y3       -1.09067  -0.00639   0.00000  -0.02850  -0.02094  -1.11161
    Z3       -0.02711   0.00118   0.00000   0.01708   0.01028  -0.01682
    X4        0.62821   0.00864   0.00000   0.00853   0.01607   0.64428
    Y4        1.09010   0.00416   0.00000   0.00858   0.01693   1.10703
    Z4        0.00680  -0.00296   0.00000  -0.01395  -0.02069  -0.01389
    X5       -0.27559  -0.00294   0.00000  -0.03404  -0.02693  -0.30252
    Y5        2.94726  -0.00770   0.00000  -0.02972  -0.02160   2.92567
    Z5       -0.03449   0.00143   0.00000   0.01720   0.01048  -0.02401
    X6        2.71150  -0.01274   0.00000  -0.02703  -0.01951   2.69199
    Y6        1.23621  -0.00707   0.00000  -0.04756  -0.03872   1.19749
    Z6       -0.03210   0.00154   0.00000   0.01689   0.01018  -0.02193
         Item               Value     Threshold  Converged?
 Maximum Force            0.015475     0.000450     NO 
 RMS     Force            0.007445     0.000300     NO 
 Maximum Displacement     0.044400     0.001800     NO 
 RMS     Displacement     0.026083     0.001200     NO 
 Predicted change in Energy=-1.528897D-03
 GradGradGradGradGradGradGradGradGradGradGradGradGradGradGradGradGradGrad

 Unable to Open any file for archive entry.
 1\1\GINC-BHD0010\Force\RwB97XD\6-311G\C2H4\BWEIGHT\11-Jan-2023\0\\# WB
 97XD/6-311G SCF=XQC FORCE nosym pop=full guess=read\\MD Step 1000\\0,1
 \C,-0.33730996,-0.58298875,0.00480259\H,0.23158249,-1.52613256,-0.0130
 6399\H,-1.42503701,-0.57715705,-0.01434489\C,0.33243254,0.57685791,0.0
 0359798\H,-0.14583478,1.55962351,-0.01825178\H,1.43486154,0.65417423,-
 0.01698744\\Version=ES64L-G16RevC.01\HF=-78.5556523\RMSD=5.403e-09\RMS
 F=7.445e-03\Dipole=0.0039738,0.0153896,-0.0259962\Quadrupole=0.8644024
 ,0.8498012,-1.7142036,0.0076614,-0.0012456,-0.0052215\PG=C01 [X(C2H4)]
 \\@
 The archive entry for this job was punched.


 SEE YOU NOW,
 YOUR BAIT OF FALSEHOOD TAKES THIS CARP OF TRUTH.
 AND THUS DO WE OF WISDOM AND OF REACH...
 BY INDIRECTIONS FIND DIRECTIONS OUT.    -- HAMLET, II, 1
 Job cpu time:       0 days  0 hours  1 minutes  1.4 seconds.
 Elapsed time:       0 days  0 hours  0 minutes 20.7 seconds.
 File lengths (MBytes):  RWF=    272 Int=      0 D2E=      0 Chk=     32 Scr=     32
 Normal termination of Gaussian 16 at Wed Jan 11 18:35:44 2023.
