6
MD Step 0
C  -0.33763715 -0.58748864 0.00000000
H  0.19552659 -1.51519357 0.00000000
H  -1.40763715 -0.58748864 0.00000000
C  0.33763715 0.58748865 0.00000000
H  -0.19552659 1.51519357 0.00000000
H  1.40763715 0.58748865 0.00000000
6
MD Step 1
C  -0.33800539 -0.58783569 -0.00039408
H  0.19788503 -1.51298766 0.00234730
H  -1.40542157 -0.58521070 0.00235088
C  0.33721687 0.58704670 -0.00039495
H  -0.19318635 1.51768916 0.00235020
H  1.41011893 0.58991080 0.00235377
6
MD Step 2
C  -0.33831618 -0.58808483 -0.00078689
H  0.20025915 -1.51109798 0.00468700
H  -1.40353362 -0.58308931 0.00469424
C  0.33675038 0.58651423 -0.00078860
H  -0.19086995 1.52044478 0.00469267
H  1.41280258 0.59245784 0.00469971
6
MD Step 3
C  -0.33855854 -0.58822776 -0.00117090
H  0.20260289 -1.50957964 0.00697418
H  -1.40206238 -0.58117621 0.00698540
C  0.33625023 0.58590276 -0.00117333
H  -0.18861492 1.52338552 0.00698214
H  1.41558023 0.59507506 0.00699226
6
MD Step 4
C  -0.33873670 -0.58827169 -0.00155295
H  0.20495241 -1.50839461 0.00924945
H  -1.40100080 -0.57943648 0.00926540
C  0.33571486 0.58521039 -0.00155586
H  -0.18637114 1.52651702 0.00925868
H  1.41842783 0.59779253 0.00927110
6
MD Step 5
C  -0.33884443 -0.58821358 -0.00192853
H  0.20727305 -1.50756530 0.01148582
H  -1.40039872 -0.57790188 0.01150781
C  0.33515422 0.58444744 -0.00193149
H  -0.18415446 1.52977276 0.01149452
H  1.42125268 0.60057183 0.01150796
6
MD Step 6
C  -0.33888574 -0.58806080 -0.00230241
H  0.20958234 -1.50705165 0.01371154
H  -1.40023848 -0.57654777 0.01374152
C  0.33456902 0.58361570 -0.00230482
H  -0.18192426 1.53313817 0.01371707
H  1.42401853 0.60342919 0.01372967
6
MD Step 7
C  -0.33885934 -0.58781543 -0.00267305
H  0.21185748 -1.50684470 0.01591727
H  -1.40052804 -0.57538614 0.01595789
C  0.33396625 0.58272395 -0.00267407
H  -0.17967682 1.53655854 0.01591597
H  1.42665356 0.60634254 0.01592531
6
MD Step 8
C  -0.33876430 -0.58747981 -0.00303823
H  0.21406916 -1.50693356 0.01808951
H  -1.40126729 -0.57443204 0.01814416
C  0.33335353 0.58178218 -0.00303679
H  -0.17741232 1.53997361 0.01807669
H  1.42908534 0.60928521 0.01807974
6
MD Step 9
C  -0.33859731 -0.58705379 -0.00339224
H  0.21616578 -1.50732242 0.02019432
H  -1.40246439 -0.57371983 0.02026714
C  0.33274170 0.58080423 -0.00338712
H  -0.17515165 1.54330245 0.02016427
H  1.43122592 0.61220976 0.02015736
6
MD Step 10
C  -0.33836525 -0.58654717 -0.00373854
H  0.21814865 -1.50795627 0.02225214
H  -1.40406105 -0.57322826 0.02234778
C  0.33213216 0.57979509 -0.00372831
H  -0.17286219 1.54651952 0.02219809
H  1.43304829 0.61512308 0.02217716
6
MD Step 11
C  -0.33807284 -0.58596733 -0.00407740
H  0.21999952 -1.50879516 0.02426467
H  -1.40600732 -0.57295363 0.02438812
C  0.33152918 0.57876302 -0.00406047
H  -0.17053121 1.54958234 0.02417887
H  1.43451351 0.61801327 0.02413951
6
MD Step 12
C  -0.33772672 -0.58532329 -0.00441015
H  0.22170615 -1.50979019 0.02623981
H  -1.40823819 -0.57288484 0.02639623
C  0.33093563 0.57771530 -0.00438480
H  -0.16814137 1.55245731 0.02611362
H  1.43559625 0.62087475 0.02605128
6
MD Step 13
C  -0.33732772 -0.58461803 -0.00473150
H  0.22321758 -1.51092979 0.02814642
H  -1.41072074 -0.57304850 0.02834122
C  0.33036058 0.57666572 -0.00469602
H  -0.16571616 1.55507517 0.02797058
H  1.43623988 0.62366308 0.02788036
6
MD Step 14
C  -0.33688954 -0.58386714 -0.00504847
H  0.22455664 -1.51212863 0.03002638
H  -1.41334348 -0.57339718 0.03026430
C  0.32980046 0.57561564 -0.00500100
H  -0.16320850 1.55744379 0.02979080
H  1.43646911 0.62640711 0.02966831
6
MD Step 15
C  -0.33641499 -0.58307507 -0.00535660
H  0.22567965 -1.51336953 0.03185361
H  -1.41605986 -0.57395007 0.03213919
C  0.32926269 0.57457759 -0.00529538
H  -0.16064144 1.55950769 0.03154785
H  1.43624876 0.62906812 0.03138866
6
MD Step 16
C  -0.33590457 -0.58224373 -0.00564870
H  0.22652889 -1.51465223 0.03358606
H  -1.41883772 -0.57474098 0.03392385
C  0.32875696 0.57356639 -0.00557221
H  -0.15805642 1.56120072 0.03319968
H  1.43553627 0.63159198 0.03299914
6
MD Step 17
C  -0.33536787 -0.58138399 -0.00592653
H  0.22710169 -1.51592527 0.03523467
H  -1.42159153 -0.57574976 0.03562824
C  0.32828361 0.57258755 -0.00583335
H  -0.15544494 1.56251541 0.03475707
H  1.43435104 0.63397817 0.03451113
6
MD Step 18
C  -0.33481830 -0.58051033 -0.00619563
H  0.22741998 -1.51711752 0.03683257
H  -1.42421521 -0.57693308 0.03728383
C  0.32783872 0.57164237 -0.00608432
H  -0.15277931 1.56347245 0.03625295
H  1.43274333 0.63624900 0.03595888
6
MD Step 19
C  -0.33425927 -0.57962711 -0.00645139
H  0.22744929 -1.51822045 0.03835339
H  -1.42666567 -0.57830579 0.03886360
C  0.32742796 0.57074150 -0.00632091
H  -0.15009376 1.56403928 0.03766142
H  1.43071227 0.63836816 0.03731678
6
MD Step 20
C  -0.33369988 -0.57874427 -0.00669522
H  0.22719306 -1.51919441 0.03980579
H  -1.42886965 -0.57984706 0.04037469
C  0.32705062 0.56988913 -0.00654467
H  -0.14739060 1.56422449 0.03899145
H  1.42829993 0.64033507 0.03859498
6
MD Step 21
C  -0.33314037 -0.57786273 -0.00691968
H  0.22660675 -1.52005518 0.04114695
H  -1.43081109 -0.58158627 0.04177408
C  0.32671418 0.56909731 -0.00674880
H  -0.14472591 1.56399182 0.04020132
H  1.42550494 0.64209870 0.03975170
6
MD Step 22
C  -0.33258622 -0.57698859 -0.00712303
H  0.22568225 -1.52078990 0.04236731
H  -1.43244713 -0.58351900 0.04305122
C  0.32642003 0.56837180 -0.00693199
H  -0.14212547 1.56334464 0.04128239
H  1.42236687 0.64364226 0.04077908
6
MD Step 23
C  -0.33204718 -0.57613218 -0.00730839
H  0.22444312 -1.52136216 0.04348574
H  -1.43371377 -0.58561199 0.04422302
C  0.32616429 0.56771282 -0.00709754
H  -0.13958953 1.56232107 0.04225427
H  1.41896092 0.64497839 0.04169848
6
MD Step 24
C  -0.33152883 -0.57529952 -0.00747509
H  0.22289425 -1.52176266 0.04449892
H  -1.43457714 -0.58785346 0.04528490
C  0.32594635 0.56712349 -0.00724521
H  -0.13714270 1.56094333 0.04311480
H  1.41534664 0.64609870 0.04250890
6
MD Step 25
C  -0.33103455 -0.57449438 -0.00762078
H  0.22103415 -1.52199704 0.04539372
H  -1.43502174 -0.59024094 0.04622290
C  0.32576683 0.56660770 -0.00737317
H  -0.13482139 1.55922974 0.04385228
H  1.41157936 0.64698613 0.04319950
6
MD Step 26
C  -0.33056652 -0.57371922 -0.00774247
H  0.21886105 -1.52207978 0.04615336
H  -1.43504451 -0.59277527 0.04701973
C  0.32562658 0.56616917 -0.00747908
H  -0.13266750 1.55720052 0.04445158
H  1.40771544 0.64762115 0.04375579
6
MD Step 27
C  -0.33013014 -0.57297972 -0.00784122
H  0.21639970 -1.52200713 0.04678455
H  -1.43462797 -0.59543384 0.04768080
C  0.32552216 0.56580685 -0.00756437
H  -0.13070125 1.55490433 0.04492084
H  1.40383830 0.64800880 0.04418733
6
MD Step 28
C  -0.32973197 -0.57228269 -0.00792005
H  0.21368888 -1.52176947 0.04730505
H  -1.43375281 -0.59818304 0.04822220
C  0.32544804 0.56551710 -0.00763223
H  -0.12893311 1.55240521 0.04527917
H  1.40004444 0.64816620 0.04451507
6
MD Step 29
C  -0.32937541 -0.57163175 -0.00797951
H  0.21075591 -1.52137653 0.04771822
H  -1.43242359 -0.60100364 0.04864628
C  0.32540093 0.56529799 -0.00768353
H  -0.12738848 1.54975635 0.04553150
H  1.39641627 0.64809716 0.04474521
6
MD Step 30
C  -0.32905678 -0.57102334 -0.00801340
H  0.20759250 -1.52088103 0.04798893
H  -1.43069265 -0.60391477 0.04891901
C  0.32538397 0.56515331 -0.00771304
H  -0.12613094 1.54697529 0.04564480
H  1.39299642 0.64776804 0.04484400
6
MD Step 31
C  -0.32878603 -0.57046775 -0.00803083
H  0.20427936 -1.52025338 0.04816927
H  -1.42853456 -0.60684946 0.04908964
C  0.32538570 0.56507182 -0.00772932
H  -0.12513752 1.54416791 0.04567210
H  1.38991114 0.64723300 0.04486741
6
MD Step 32
C  -0.32855723 -0.56995927 -0.00802491
H  0.20080854 -1.51955875 0.04822006
H  -1.42602391 -0.60983166 0.04912071
C  0.32541017 0.56505702 -0.00772647
H  -0.12447449 1.54134973 0.04557618
H  1.38719038 0.64645601 0.04477693
6
MD Step 33
C  -0.32837353 -0.56950145 -0.00799917
H  0.19723274 -1.51880674 0.04816146
H  -1.42318468 -0.61282697 0.04903163
C  0.32545172 0.56510219 -0.00770793
H  -0.12414774 1.53859457 0.04537839
H  1.38491607 0.64546086 0.04459482
6
MD Step 34
C  -0.32823915 -0.56909907 -0.00795918
H  0.19361700 -1.51799871 0.04802476
H  -1.42003787 -0.61579058 0.04885256
C  0.32550323 0.56519853 -0.00767881
H  -0.12414984 1.53598521 0.04511097
H  1.38317202 0.64428304 0.04435449
6
MD Step 35
C  -0.32814825 -0.56874698 -0.00790062
H  0.18997155 -1.51719408 0.04778531
H  -1.41666800 -0.61873403 0.04856064
C  0.32556747 0.56534654 -0.00763537
H  -0.12452576 1.53354512 0.04475045
H  1.38197490 0.64290271 0.04403094
6
MD Step 36
C  -0.32810014 -0.56844536 -0.00782541
H  0.18634181 -1.51641879 0.04745351
H  -1.41313131 -0.62163484 0.04816667
C  0.32564191 0.56554089 -0.00757930
H  -0.12528203 1.53132791 0.04430793
H  1.38136388 0.64133542 0.04363487
6
MD Step 37
C  -0.32808945 -0.56818999 -0.00773120
H  0.18274917 -1.51572329 0.04701578
H  -1.40951348 -0.62449524 0.04765889
C  0.32572863 0.56578046 -0.00750849
H  -0.12644476 1.52935732 0.04377033
H  1.38134069 0.63957325 0.04315150
6
MD Step 38
C  -0.32811826 -0.56798433 -0.00762417
H  0.17926190 -1.51510993 0.04650630
H  -1.40585659 -0.62727060 0.04707141
C  0.32582232 0.56605635 -0.00742823
H  -0.12798765 1.52769790 0.04317199
H  1.38194093 0.63765652 0.04261516
6
MD Step 39
C  -0.32818004 -0.56782349 -0.00750194
H  0.17589881 -1.51462816 0.04591090
H  -1.40225405 -0.62996548 0.04639218
C  0.32592638 0.56636815 -0.00733617
H  -0.12992728 1.52635782 0.04249867
H  1.38313729 0.63557767 0.04200958
6
MD Step 40
C  -0.32826438 -0.56769897 -0.00735841
H  0.17265620 -1.51434600 0.04519476
H  -1.39882112 -0.63260607 0.04558938
C  0.32604824 0.56671937 -0.00722662
H  -0.13229536 1.52531595 0.04171499
H  1.38486779 0.63330905 0.04129653
6
MD Step 41
C  -0.32836693 -0.56760856 -0.00719416
H  0.16956532 -1.51429057 0.04436046
H  -1.39563414 -0.63518176 0.04466726
C  0.32618949 0.56710765 -0.00709977
H  -0.13508052 1.52458002 0.04082285
H  1.38709572 0.63086118 0.04047633
6
MD Step 42
C  -0.32848588 -0.56755273 -0.00701251
H  0.16666991 -1.51446920 0.04342589
H  -1.39275049 -0.63766702 0.04364495
C  0.32634941 0.56752845 -0.00695821
H  -0.13825012 1.52416457 0.03983951
H  1.38978888 0.62826096 0.03956518
6
MD Step 43
C  -0.32861579 -0.56752847 -0.00681290
H  0.16398855 -1.51490607 0.04238725
H  -1.39024414 -0.64005877 0.04252054
C  0.32653120 0.56798137 -0.00680107
H  -0.14178773 1.52405362 0.03876010
H  1.39288340 0.62551436 0.03855656
6
MD Step 44
C  -0.32875727 -0.56753882 -0.00660096
H  0.16157078 -1.51558483 0.04127528
H  -1.38814699 -0.64231946 0.04132567
C  0.32673231 0.56846055 -0.00663296
H  -0.14563656 1.52425786 0.03761482
H  1.39634232 0.62266307 0.03748007
6
MD Step 45
C  -0.32890675 -0.56758270 -0.00637759
H  0.15943568 -1.51650968 0.04009444
H  -1.38650891 -0.64443856 0.04006628
C  0.32695469 0.56896498 -0.00645436
H  -0.14976130 1.52475368 0.03640714
H  1.40009539 0.61972323 0.03633802
6
MD Step 46
C  -0.32906544 -0.56766366 -0.00614833
H  0.15762394 -1.51765259 0.03887494
H  -1.38534376 -0.64637987 0.03877334
C  0.32719587 0.56948962 -0.00626982
H  -0.15409597 1.52553654 0.03516688
H  1.40409358 0.61673773 0.03515982
6
MD Step 47
C  -0.32922723 -0.56777793 -0.00591054
H  0.15612628 -1.51902524 0.03760164
H  -1.38470042 -0.64815364 0.03743316
C  0.32746089 0.57003744 -0.00607671
H  -0.15861666 1.52654996 0.03387766
H  1.40823852 0.61370453 0.03392800
6
MD Step 48
C  -0.32938649 -0.56792195 -0.00566150
H  0.15492844 -1.52063369 0.03625897
H  -1.38461616 -0.64977102 0.03603127
C  0.32775460 0.57061167 -0.00587237
H  -0.16329684 1.52773218 0.03252265
H  1.41243019 0.61062174 0.03262494
6
MD Step 49
C  -0.32953779 -0.56809208 -0.00539795
H  0.15400908 -1.52248066 0.03482870
H  -1.38511772 -0.65124622 0.03455019
C  0.32808194 0.57121611 -0.00565372
H  -0.16811049 1.52901543 0.03108243
H  1.41656701 0.60748546 0.03123067
6
MD Step 50
C  -0.32967646 -0.56828503 -0.00511670
H  0.15334292 -1.52456274 0.03329309
H  -1.38621751 -0.65259322 0.03297252
C  0.32844731 0.57185439 -0.00541783
H  -0.17302983 1.53033057 0.02953807
H  1.42055096 0.60429282 0.02972607
6
MD Step 51
C  -0.32980407 -0.56850320 -0.00482023
H  0.15293270 -1.52683893 0.03166620
H  -1.38788163 -0.65379382 0.03131205
C  0.32884921 0.57252458 -0.00516692
H  -0.17799418 1.53164031 0.02790354
H  1.42432135 0.60107360 0.02812538
6
MD Step 52
C  -0.32992942 -0.56875554 -0.00451781
H  0.15281535 -1.52922566 0.02999970
H  -1.39002502 -0.65479170 0.02961963
C  0.32927926 0.57321804 -0.00490927
H  -0.18290474 1.53294626 0.02623179
H  1.42786169 0.59789584 0.02648226
6
MD Step 53
C  -0.33005084 -0.56904032 -0.00420722
H  0.15296027 -1.53170073 0.02828159
H  -1.39261639 -0.65559610 0.02788276
C  0.32973934 0.57393683 -0.00464299
H  -0.18772859 1.53418663 0.02451038
H  1.43109661 0.59476328 0.02478461
6
MD Step 54
C  -0.33016784 -0.56935645 -0.00388694
H  0.15333786 -1.53423569 0.02650376
H  -1.39561105 -0.65621307 0.02609260
C  0.33023012 0.57468200 -0.00436681
H  -0.19243064 1.53530599 0.02273098
H  1.43396171 0.59168336 0.02302456
6
MD Step 55
C  -0.33027818 -0.56970069 -0.00355319
H  0.15390369 -1.53681308 0.02464586
H  -1.39896865 -0.65666202 0.02422801
C  0.33075383 0.57545635 -0.00407755
H  -0.19699077 1.53623973 0.02087264
H  1.43638788 0.58865077 0.02118164
6
MD Step 56
C  -0.33038756 -0.57007708 -0.00321010
H  0.15465563 -1.53937022 0.02273132
H  -1.40259772 -0.65691847 0.02231138
C  0.33130479 0.57625469 -0.00377908
H  -0.20134707 1.53697206 0.01895970
H  1.43835946 0.58570411 0.01928091
6
MD Step 57
C  -0.33049769 -0.57048537 -0.00285747
H  0.15556586 -1.54186914 0.02075961
H  -1.40642678 -0.65698351 0.02034125
C  0.33188083 0.57707548 -0.00347143
H  -0.20546567 1.53746756 0.01699184
H  1.43984507 0.58285709 0.01732263
6
MD Step 58
C  -0.33061127 -0.57092587 -0.00249604
H  0.15661095 -1.54426773 0.01873547
H  -1.41037658 -0.65685403 0.01832142
C  0.33247841 0.57791581 -0.00315547
H  -0.20931117 1.53770143 0.01497419
H  1.44082782 0.58012798 0.01531255
6
MD Step 59
C  -0.33072627 -0.57139394 -0.00212172
H  0.15773966 -1.54655344 0.01663658
H  -1.41439481 -0.65655592 0.01622881
C  0.33309811 0.57877690 -0.00282771
H  -0.21288018 1.53762696 0.01288388
H  1.44127234 0.57750681 0.01322832
6
MD Step 60
C  -0.33085045 -0.57189424 -0.00174066
H  0.15895859 -1.54865807 0.01449795
H  -1.41837172 -0.65605779 0.01409763
C  0.33373037 0.57964963 -0.00249392
H  -0.21611535 1.53726185 0.01075712
H  1.44121136 0.57504056 0.01110669
6
MD Step 61
C  -0.33099004 -0.57242964 -0.00135767
H  0.16026709 -1.55052462 0.01234700
H  -1.42220823 -0.65533748 0.01195468
C  0.33436651 0.58052567 -0.00215863
H  -0.21897183 1.53662218 0.00862223
H  1.44067891 0.57276741 0.00897641
6
MD Step 62
C  -0.33114241 -0.57299416 -0.00096879
H  0.16161566 -1.55215021 0.01016189
H  -1.42585988 -0.65442461 0.00977772
C  0.33500583 0.58140470 -0.00181835
H  -0.22145997 1.53568014 0.00645674
H  1.43966747 0.57067451 0.00681531
6
MD Step 63
C  -0.33130503 -0.57358178 -0.00057057
H  0.16295886 -1.55353350 0.00792367
H  -1.42928478 -0.65334737 0.00754754
C  0.33564683 0.58228545 -0.00147006
H  -0.22359229 1.53441709 0.00424099
H  1.43818117 0.56875057 0.00460391
6
MD Step 64
C  -0.33148545 -0.57419619 -0.00017033
H  0.16431383 -1.55461632 0.00567398
H  -1.43238564 -0.65207352 0.00530557
C  0.33627747 0.58315582 -0.00112053
H  -0.22532465 1.53288241 0.00201748
H  1.43629459 0.56704421 0.00238485
6
MD Step 65
C  -0.33168469 -0.57483462 0.00023084
H  0.16566394 -1.55538135 0.00341920
H  -1.43510827 -0.65060812 0.00305820
C  0.33689146 0.58400937 -0.00077078
H  -0.22665394 1.53109586 -0.00020763
H  1.43405421 0.56556702 0.00016428
6
MD Step 66
C  -0.33190038 -0.57549089 0.00063482
H  0.16697755 -1.55583368 0.00114884
H  -1.43742368 -0.64897474 0.00079507
C  0.33748520 0.58484219 -0.00041906
H  -0.22759927 1.52906607 -0.00244564
H  1.43149645 0.56431207 -0.00206926
6
MD Step 67
C  -0.33213035 -0.57615904 0.00104280
H  0.16822920 -1.55597970 -0.00114366
H  -1.43930712 -0.64719406 -0.00149013
C  0.33805432 0.58564938 -0.00006420
H  -0.22818065 1.52681151 -0.00470390
H  1.42866836 0.56327500 -0.00432339
6
MD Step 68
C  -0.33237376 -0.57683438 0.00145414
H  0.16940617 -1.55582054 -0.00345454
H  -1.44073180 -0.64527730 -0.00379331
C  0.33859267 0.58642405 0.00029331
H  -0.22841238 1.52436671 -0.00697941
H  1.42563337 0.56246043 -0.00659548
6
MD Step 69
C  -0.33263217 -0.57751468 0.00186528
H  0.17051488 -1.55534571 -0.00576346
H  -1.44166279 -0.64321972 -0.00609371
C  0.33909136 0.58715623 0.00065030
H  -0.22829645 1.52178813 -0.00925238
H  1.42247653 0.56188831 -0.00886623
6
MD Step 70
C  -0.33290182 -0.57819252 0.00227762
H  0.17153577 -1.55457845 -0.00807845
H  -1.44210272 -0.64104609 -0.00839889
C  0.33954642 0.58784068 0.00100829
H  -0.22786775 1.51910811 -0.01153212
H  1.41925743 0.56154864 -0.01114548
6
MD Step 71
C  -0.33318219 -0.57886385 0.00268881
H  0.17247343 -1.55352515 -0.01038607
H  -1.44204137 -0.63876010 -0.01069491
C  0.33995054 0.58846847 0.00136528
H  -0.22714321 1.51638462 -0.01380624
H  1.41605938 0.56145172 -0.01342151
6
MD Step 72
C  -0.33347346 -0.57952547 0.00309542
H  0.17334150 -1.55219026 -0.01266644
H  -1.44147091 -0.63635936 -0.01296130
C  0.34029566 0.58902958 0.00171826
H  -0.22613647 1.51368524 -0.01605593
H  1.41297236 0.56161310 -0.01567622
6
MD Step 73
C  -0.33377674 -0.58017533 0.00349264
H  0.17416420 -1.55057454 -0.01489172
H  -1.44038444 -0.63383388 -0.01516958
C  0.34057292 0.58951279 0.00206285
H  -0.22485572 1.51108771 -0.01825446
H  1.41009251 0.56205518 -0.01788363
6
MD Step 74
C  -0.33409197 -0.58081050 0.00387646
H  0.17496370 -1.54868743 -0.01703856
H  -1.43878882 -0.63117851 -0.01729577
C  0.34077487 0.58990793 0.00239546
H  -0.22331559 1.50866614 -0.02037965
H  1.40750710 0.56279466 -0.02002238
6
MD Step 75
C  -0.33440601 -0.58141546 0.00425562
H  0.17568988 -1.54661703 -0.01915797
H  -1.43677494 -0.62846353 -0.01939086
C  0.34090735 0.59021779 0.00272486
H  -0.22160692 1.50641931 -0.02248486
H  1.40522177 0.56377247 -0.02214587
6
MD Step 76
C  -0.33471670 -0.58198592 0.00462748
H  0.17636134 -1.54438739 -0.02123462
H  -1.43437469 -0.62569209 -0.02143914
C  0.34096586 0.59043441 0.00304876
H  -0.21975382 1.50441168 -0.02455605
H  1.40330190 0.56499535 -0.02424051
6
MD Step 77
C  -0.33501967 -0.58251582 0.00499137
H  0.17698719 -1.54203622 -0.02326448
H  -1.43163872 -0.62287861 -0.02343645
C  0.34094870 0.59055232 0.00336673
H  -0.21779131 1.50269369 -0.02659064
H  1.40179241 0.56645791 -0.02630380
6
MD Step 78
C  -0.33531189 -0.58300085 0.00534509
H  0.17758717 -1.53959375 -0.02523453
H  -1.42861534 -0.62002810 -0.02536963
C  0.34085360 0.59056527 0.00367677
H  -0.21574387 1.50132089 -0.02857676
H  1.40073679 0.56816303 -0.02832389
6
MD Step 79
C  -0.33558453 -0.58343150 0.00569195
H  0.17814941 -1.53712401 -0.02716442
H  -1.42539166 -0.61717820 -0.02725899
C  0.34068481 0.59047340 0.00398240
H  -0.21366664 1.50031057 -0.03053545
H  1.40013386 0.57008009 -0.03032099
6
MD Step 80
C  -0.33584111 -0.58381097 0.00602309
H  0.17873611 -1.53461761 -0.02900081
H  -1.42198593 -0.61429235 -0.02905058
C  0.34043526 0.59026545 0.00427459
H  -0.21153807 1.49974703 -0.03241364
H  1.40004391 0.57225111 -0.03224237
6
MD Step 81
C  -0.33606943 -0.58412744 0.00634494
H  0.17931771 -1.53215720 -0.03078228
H  -1.41851301 -0.61142619 -0.03078453
C  0.34011435 0.58994685 0.00455998
H  -0.20942534 1.49961412 -0.03425087
H  1.40042127 0.57462504 -0.03412568
6
MD Step 82
C  -0.33626763 -0.58437986 0.00665395
H  0.17992525 -1.52976313 -0.03248692
H  -1.41502901 -0.60857377 -0.03243936
C  0.33972225 0.58951397 0.00483475
H  -0.20733034 1.49994786 -0.03602517
H  1.40126878 0.57721082 -0.03594819
6
MD Step 83
C  -0.33643219 -0.58456605 0.00694833
H  0.18057874 -1.52746415 -0.03410334
H  -1.41160144 -0.60573902 -0.03400446
C  0.33926173 0.58896626 0.00509675
H  -0.20526062 1.50076416 -0.03772472
H  1.40256646 0.58000602 -0.03769698
6
MD Step 84
C  -0.33655317 -0.58467794 0.00723268
H  0.18125798 -1.52532559 -0.03565932
H  -1.40833644 -0.60296468 -0.03550984
C  0.33874292 0.58831110 0.00535061
H  -0.20325808 1.50202947 -0.03937685
H  1.40424351 0.58296797 -0.03939681
6
MD Step 85
C  -0.33662473 -0.58471191 0.00750804
H  0.18196301 -1.52338727 -0.03716103
H  -1.40531522 -0.60027091 -0.03696356
C  0.33817294 0.58755358 0.00559715
H  -0.20133777 1.50372194 -0.04098656
H  1.40624142 0.58607477 -0.04105062
6
MD Step 86
C  -0.33664816 -0.58467182 0.00776917
H  0.18273141 -1.52164504 -0.03857525
H  -1.40257425 -0.59763753 -0.03833283
C  0.33755280 0.58669348 0.00583012
H  -0.19947032 1.50584943 -0.04251872
H  1.40853345 0.58934300 -0.04262279
6
MD Step 87
C  -0.33661599 -0.58455303 0.00801976
H  0.18354270 -1.52014604 -0.03992459
H  -1.40019948 -0.59509978 -0.03964293
C  0.33689330 0.58574130 0.00605313
H  -0.19767781 1.50835420 -0.04399406
H  1.41103023 0.59273222 -0.04413141
6
MD Step 88
C  -0.33652538 -0.58435569 0.00825981
H  0.18439693 -1.51890900 -0.04120867
H  -1.39824501 -0.59266906 -0.04089524
C  0.33620163 0.58470490 0.00626564
H  -0.19595519 1.51119295 -0.04540972
H  1.41366114 0.59622399 -0.04557204
6
MD Step 89
C  -0.33637551 -0.58408204 0.00848824
H  0.18529815 -1.51794021 -0.04242033
H  -1.39674776 -0.59034933 -0.04208394
C  0.33548402 0.58359214 0.00646589
H  -0.19428732 1.51432155 -0.04675582
H  1.41635991 0.59980563 -0.04693373
6
MD Step 90
C  -0.33616222 -0.58373091 0.00870793
H  0.18622198 -1.51726598 -0.04357809
H  -1.39575870 -0.58816963 -0.04323014
C  0.33475109 0.58241622 0.00665677
H  -0.19268209 1.51766372 -0.04804797
H  1.41903383 0.60343775 -0.04822990
6
MD Step 91
C  -0.33589745 -0.58331712 0.00890790
H  0.18723057 -1.51681708 -0.04461089
H  -1.39522625 -0.58606873 -0.04426057
C  0.33399838 0.58117615 0.00682490
H  -0.19105605 1.52122790 -0.04921201
H  1.42168108 0.60716975 -0.04938906
6
MD Step 92
C  -0.33557576 -0.58283792 0.00909409
H  0.18827414 -1.51662864 -0.04555716
H  -1.39519633 -0.58409451 -0.04521655
C  0.33323977 0.57989009 0.00697679
H  -0.18943405 1.52490909 -0.05028327
H  1.42419196 0.61094057 -0.05044404
6
MD Step 93
C  -0.33520097 -0.58229962 0.00926484
H  0.18934924 -1.51668166 -0.04640635
H  -1.39565298 -0.58224538 -0.04608767
C  0.33248077 0.57856855 0.00711005
H  -0.18779175 1.52864910 -0.05124821
H  1.42650945 0.61473747 -0.05138155
6
MD Step 94
C  -0.33477384 -0.58170511 0.00942222
H  0.19042566 -1.51697686 -0.04717245
H  -1.39659226 -0.58054371 -0.04688897
C  0.33173083 0.57722655 0.00722688
H  -0.18612972 1.53236458 -0.05211786
H  1.42855694 0.61852265 -0.05221187
6
MD Step 95
C  -0.33429900 -0.58106091 0.00956561
H  0.19148855 -1.51749327 -0.04785213
H  -1.39798082 -0.57899403 -0.04761685
C  0.33099617 0.57587643 0.00732632
H  -0.18443239 1.53599032 -0.05288623
H  1.43028135 0.62227539 -0.05292947
6
MD Step 96
C  -0.33377889 -0.58037095 0.00969717
H  0.19250274 -1.51822487 -0.04846092
H  -1.39979307 -0.57761892 -0.04828727
C  0.33028585 0.57453369 0.00741099
H  -0.18270454 1.53944461 -0.05356626
H  1.43161801 0.62595611 -0.05354690
6
MD Step 97
C  -0.33322523 -0.57964824 0.00981139
H  0.19348281 -1.51911143 -0.04896315
H  -1.40194263 -0.57638953 -0.04886200
C  0.32959995 0.57320518 0.00747418
H  -0.18090247 1.54270013 -0.05412072
H  1.43256115 0.62957647 -0.05402951
6
MD Step 98
C  -0.33264401 -0.57889971 0.00990851
H  0.19440442 -1.52012876 -0.04936175
H  -1.40437396 -0.57531454 -0.04934305
C  0.32894460 0.57190389 0.00751633
H  -0.17902313 1.54569569 -0.05455087
H  1.43307495 0.63311007 -0.05437925
6
MD Step 99
C  -0.33204588 -0.57813681 0.00998502
H  0.19526822 -1.52122592 -0.04963436
H  -1.40700070 -0.57437691 -0.04970567
C  0.32832121 0.57063817 0.00753330
H  -0.17704139 1.54840054 -0.05483359
H  1.43315721 0.63655623 -0.05457516
6
MD Step 100
C  -0.33143841 -0.57736765 0.01004049
H  0.19605471 -1.52237177 -0.04977936
H  -1.40975358 -0.57357929 -0.04994658
C  0.32773419 0.56941928 0.00752482
H  -0.17495554 1.55076953 -0.05496659
H  1.43279399 0.63989445 -0.05461624
6
MD Step 101
C  -0.33082523 -0.57659621 0.01007818
H  0.19672050 -1.52355979 -0.04982019
H  -1.41258637 -0.57294808 -0.05008860
C  0.32719161 0.56826187 0.00749533
H  -0.17279148 1.55273968 -0.05497238
H  1.43195566 0.64308040 -0.05452524
6
MD Step 102
C  -0.33021258 -0.57582900 0.01009904
H  0.19723872 -1.52476859 -0.04976497
H  -1.41543717 -0.57249356 -0.05013845
C  0.32669835 0.56717722 0.00744651
H  -0.17056321 1.55427073 -0.05485888
H  1.43063729 0.64608625 -0.05431109
6
MD Step 103
C  -0.32961080 -0.57507657 0.01010032
H  0.19760924 -1.52595266 -0.04959652
H  -1.41822001 -0.57220005 -0.05007655
C  0.32625441 0.56617146 0.00737551
H  -0.16826306 1.55535551 -0.05460982
H  1.42886861 0.64891081 -0.05395959
6
MD Step 104
C  -0.32903474 -0.57435407 0.01007507
H  0.19786274 -1.52703951 -0.04926862
H  -1.42082313 -0.57202249 -0.04985314
C  0.32585426 0.56524492 0.00727411
H  -0.16585819 1.55602367 -0.05418141
H  1.42671719 0.65158321 -0.05343015
6
MD Step 105
C  -0.32849223 -0.57366945 0.01002236
H  0.19799215 -1.52799917 -0.04877568
H  -1.42317983 -0.57195469 -0.04946082
C  0.32549853 0.56440350 0.00714162
H  -0.16335854 1.55627315 -0.05356966
H  1.42421922 0.65409401 -0.05272038
6
MD Step 106
C  -0.32798367 -0.57302306 0.00994752
H  0.19795085 -1.52884671 -0.04815507
H  -1.42527166 -0.57203135 -0.04893681
C  0.32519435 0.56365893 0.00698530
H  -0.16081866 1.55606823 -0.05281218
H  1.42137711 0.65639314 -0.05186791
6
MD Step 107
C  -0.32751360 -0.57241945 0.00985177
H  0.19772330 -1.52957213 -0.04741565
H  -1.42705837 -0.57225825 -0.04828881
C  0.32494341 0.56301697 0.00680715
H  -0.15826804 1.55540988 -0.05191945
H  1.41822957 0.65846073 -0.05088428
6
MD Step 108
C  -0.32708134 -0.57185778 0.00974048
H  0.19726866 -1.53019678 -0.04659510
H  -1.42853472 -0.57266800 -0.04755449
C  0.32475148 0.56248674 0.00661455
H  -0.15576654 1.55427969 -0.05092965
H  1.41479535 0.66025069 -0.04980776
6
MD Step 109
C  -0.32669844 -0.57134977 0.00960754
H  0.19662746 -1.53066743 -0.04565172
H  -1.42962432 -0.57321495 -0.04668989
C  0.32461030 0.56206305 0.00640032
H  -0.15329943 1.55274561 -0.04980532
H  1.41117856 0.66179753 -0.04860319
6
MD Step 110
C  -0.32636393 -0.57089424 0.00945753
H  0.19577119 -1.53100629 -0.04461719
H  -1.43033068 -0.57392365 -0.04572672
C  0.32452324 0.56175127 0.00617072
H  -0.15092508 1.55081218 -0.04857929
H  1.40741827 0.66306566 -0.04730358
6
MD Step 111
C  -0.32608681 -0.57050027 0.00928542
H  0.19473968 -1.53117442 -0.04345709
H  -1.43060028 -0.57475350 -0.04462911
C  0.32448195 0.56154465 0.00591999
H  -0.14863961 1.54855646 -0.04722147
H  1.40362374 0.66408692 -0.04588044
6
MD Step 112
C  -0.32586712 -0.57016772 0.00909361
H  0.19352591 -1.53118658 -0.04218792
H  -1.43043817 -0.57571238 -0.04341355
C  0.32448607 0.56144340 0.00565162
H  -0.14648975 1.54601302 -0.04575045
H  1.39985858 0.66484516 -0.04435258
6
MD Step 113
C  -0.32571125 -0.56990300 0.00887807
H  0.19216966 -1.53101789 -0.04078183
H  -1.42981451 -0.57676437 -0.04205149
C  0.32452738 0.56143928 0.00536101
H  -0.14448026 1.54326622 -0.04414262
H  1.39623215 0.66536992 -0.04269729
6
MD Step 114
C  -0.32561465 -0.56970132 0.00864409
H  0.19065184 -1.53070896 -0.03927386
H  -1.42877025 -0.57793388 -0.04057862
C  0.32460784 0.56153315 0.00505490
H  -0.14267725 1.54034432 -0.04243445
H  1.39279283 0.66563067 -0.04095056
6
MD Step 115
C  -0.32557178 -0.56955691 0.00839718
H  0.18895494 -1.53030516 -0.03770040
H  -1.42735614 -0.57924586 -0.03903210
C  0.32472940 0.56172500 0.00474020
H  -0.14114791 1.53727886 -0.04066354
H  1.38958682 0.66559740 -0.03914933
6
MD Step 116
C  -0.32558402 -0.56947118 0.00813579
H  0.18711088 -1.52980838 -0.03605034
H  -1.42558402 -0.58067847 -0.03740108
C  0.32488593 0.56200619 0.00441527
H  -0.13991265 1.53415124 -0.03882197
H  1.38670433 0.66528869 -0.03728549
6
MD Step 117
C  -0.32565122 -0.56944404 0.00785917
H  0.18514885 -1.52922834 -0.03431772
H  -1.42347851 -0.58221423 -0.03568011
C  0.32507208 0.56236813 0.00407936
H  -0.13899542 1.53103975 -0.03690658
H  1.38422603 0.66471958 -0.03535536
6
MD Step 118
C  -0.32577310 -0.56947539 0.00756593
H  0.18310398 -1.52857352 -0.03249271
H  -1.42106785 -0.58383140 -0.03386000
C  0.32528204 0.56280102 0.00373095
H  -0.13841412 1.52802665 -0.03491018
H  1.38222945 0.66391029 -0.03335105
6
MD Step 119
C  -0.32594775 -0.56956359 0.00725565
H  0.18100719 -1.52786058 -0.03057159
H  -1.41839346 -0.58551383 -0.03193788
C  0.32551126 0.56329570 0.00336957
H  -0.13818950 1.52518664 -0.03283107
H  1.38077698 0.66287607 -0.03126992
6
MD Step 120
C  -0.32617414 -0.56970810 0.00692639
H  0.17890052 -1.52709831 -0.02854074
H  -1.41549374 -0.58723552 -0.02990100
C  0.32575392 0.56384126 0.00299294
H  -0.13832877 1.52260047 -0.03065776
H  1.37992935 0.66164277 -0.02909942
6
MD Step 121
C  -0.32644359 -0.56990072 0.00658287
H  0.17678404 -1.52633973 -0.02643008
H  -1.41245613 -0.58901289 -0.02778064
C  0.32601204 0.56443398 0.00260636
H  -0.13887685 1.52030065 -0.02842029
H  1.37969135 0.66019383 -0.02686812
6
MD Step 122
C  -0.32675124 -0.57013738 0.00622574
H  0.17468488 -1.52561207 -0.02424268
H  -1.40934628 -0.59083616 -0.02558098
C  0.32628364 0.56506602 0.00221035
H  -0.13984696 1.51833888 -0.02612249
H  1.38008022 0.65853981 -0.02457860
6
MD Step 123
C  -0.32708267 -0.57040445 0.00586431
H  0.17257498 -1.52499746 -0.02203738
H  -1.40628830 -0.59275017 -0.02336244
C  0.32657665 0.56573911 0.00181514
H  -0.14130076 1.51670331 -0.02382188
H  1.38104380 0.65663658 -0.02228676
6
MD Step 124
C  -0.32744086 -0.57070616 0.00549104
H  0.17053253 -1.52447056 -0.01976534
H  -1.40330068 -0.59469402 -0.02107681
C  0.32688139 0.56643784 0.00141208
H  -0.14318767 1.51547861 -0.02147103
H  1.38262246 0.65454741 -0.01994451
6
MD Step 125
C  -0.32782319 -0.57104120 0.00510354
H  0.16860211 -1.52403706 -0.01741071
H  -1.40043479 -0.59663929 -0.01870902
C  0.32719422 0.56715291 0.00099827
H  -0.14548223 1.51470593 -0.01905422
H  1.38480970 0.65230342 -0.01753546
6